
     Program PWSCF v.7.0 starts on  5Jun2024 at 12:10:38 

     This program is part of the open-source Quantum ESPRESSO suite
     for quantum simulation of materials; please cite
         "P. Giannozzi et al., J. Phys.:Condens. Matter 21 395502 (2009);
         "P. Giannozzi et al., J. Phys.:Condens. Matter 29 465901 (2017);
         "P. Giannozzi et al., J. Chem. Phys. 152 154105 (2020);
          URL http://www.quantum-espresso.org", 
     in publications or presentations arising from this work. More details at
     http://www.quantum-espresso.org/quote

     Parallel version (MPI & OpenMP), running on      64 processor cores
     Number of MPI processes:                32
     Threads/MPI process:                     2

     MPI processes distributed on     1 nodes
     96750 MiB available memory on the printing compute node when the environment starts
 
     Waiting for input...
     Reading input from standard input

     Current dimensions of program PWSCF are:
     Max number of different atomic species (ntypx) = 10
     Max number of k-points (npk) =  40000
     Max angular momentum in pseudopotentials (lmaxx) =  4
     Message from routine input:
     WARNING: "startingwfc" set to random may spoil restart
     file O.pbe-n-kjpaw_psl.0.1.UPF: wavefunction(s)  2P renormalized

     gamma-point specific algorithms are used
 
     R & G space division:  proc/nbgrp/npool/nimage =      32
     Subspace diagonalization in iterative solution of the eigenvalue problem:
     a serial algorithm will be used

 
     Parallelization info
     --------------------
     sticks:   dense  smooth     PW     G-vecs:    dense   smooth      PW
     Min         517     257     63                50166    17742    2216
     Max         520     260     66                50174    17756    2226
     Sum       16581    8293   2077              1605533   567947   71015
 
     Using Slab Decomposition
 


     bravais-lattice index     =            1
     lattice parameter (alat)  =      22.8206  a.u.
     unit-cell volume          =   11884.5215 (a.u.)^3
     number of atoms/cell      =          126
     number of atomic types    =            2
     number of electrons       =      1008.00
     number of Kohn-Sham states=          605
     kinetic-energy cutoff     =      50.0000  Ry
     charge density cutoff     =     400.0000  Ry
     scf convergence threshold =      1.0E-05
     mixing beta               =       0.6000
     number of iterations used =            8  plain     mixing
     energy convergence thresh.=      0.0E+00
     force convergence thresh. =      0.0E+00
     Exchange-correlation= SLA  PW   PBX  PBC
                           (   1   4   3   4   0   0   0)
     nstep                     =          200


     celldm(1)=  22.820609  celldm(2)=   0.000000  celldm(3)=   0.000000
     celldm(4)=   0.000000  celldm(5)=   0.000000  celldm(6)=   0.000000

     crystal axes: (cart. coord. in units of alat)
               a(1) = (   1.000000   0.000000   0.000000 )  
               a(2) = (   0.000000   1.000000   0.000000 )  
               a(3) = (   0.000000   0.000000   1.000000 )  

     reciprocal axes: (cart. coord. in units 2 pi/alat)
               b(1) = (  1.000000  0.000000  0.000000 )  
               b(2) = (  0.000000  1.000000  0.000000 )  
               b(3) = (  0.000000  0.000000  1.000000 )  


     PseudoPot. # 1 for Ta read from file:
     /home/umari/pseudi/Ta_pbe_v1.uspp.F.UPF
     MD5 check sum: f8bbe9446314a3b8ea5d9f3e3836c939
     Pseudo is Ultrasoft + core correction, Zval = 13.0
     Generated by new atomic code, or converted to UPF format
     Using radial grid of  921 points,  7 beta functions with: 
                l(1) =   0
                l(2) =   0
                l(3) =   1
                l(4) =   1
                l(5) =   2
                l(6) =   2
                l(7) =   3
     Q(r) pseudized with  6 coefficients,  rinner =    1.300   1.300   1.300
                                                       1.300   1.300   1.300
                                                       1.300

     PseudoPot. # 2 for O  read from file:
     /home/umari/pseudi/O.pbe-n-kjpaw_psl.0.1.UPF
     MD5 check sum: 0234752ac141de4415c5fc33072bef88
     Pseudo is Projector augmented-wave + core cor, Zval =  6.0
     Generated using "atomic" code by A. Dal Corso  v.5.0.99 svn rev. 10869
     Shape of augmentation charge: BESSEL
     Using radial grid of 1095 points,  4 beta functions with: 
                l(1) =   0
                l(2) =   0
                l(3) =   1
                l(4) =   1
     Q(r) pseudized with 0 coefficients 


     atomic species   valence    mass     pseudopotential
        Ta            13.00   180.95000     Ta( 1.00)
        O              6.00    16.00000     O ( 1.00)

     No symmetry found



   Cartesian axes

     site n.     atom                  positions (alat units)
         1           Ta  tau(   1) = (   0.4294818   0.7411694   0.7855602  )
         2           Ta  tau(   2) = (   0.1024681   0.1378091   0.8127364  )
         3           O   tau(   3) = (   0.9193547   0.1159507   0.8123435  )
         4           O   tau(   4) = (   0.1271578   0.9440812   0.2136582  )
         5           O   tau(   5) = (   0.0942712   0.1211860   0.5201052  )
         6           O   tau(   6) = (   0.7495448   0.3644968   0.9228819  )
         7           O   tau(   7) = (   0.9184638   0.6154645   0.0247287  )
         8           Ta  tau(   8) = (   0.1163058   0.7946775   0.2939046  )
         9           Ta  tau(   9) = (   0.1016542   0.6383521   0.0261965  )
        10           O   tau(  10) = (   0.1092967   0.2714826   0.9007194  )
        11           O   tau(  11) = (   0.0900661   0.9960720   0.7090535  )
        12           O   tau(  12) = (   0.1380444   0.8805847   0.4198683  )
        13           O   tau(  13) = (   0.2777580   0.1219511   0.7960706  )
        14           O   tau(  14) = (   0.2437299   0.6323425   0.5216727  )
        15           Ta  tau(  15) = (   0.1160945   0.2942015   0.5454969  )
        16           Ta  tau(  16) = (   0.1081590   0.1208775   0.2290873  )
        17           O   tau(  17) = (   0.4125505   0.4833606   0.5823812  )
        18           O   tau(  18) = (   0.4724255   0.0286738   0.6663287  )
        19           O   tau(  19) = (   0.1100166   0.9866291   0.9003961  )
        20           O   tau(  20) = (   0.6073616   0.8913477   0.5531177  )
        21           O   tau(  21) = (   0.5909219   0.4436198   0.7627633  )
        22           Ta  tau(  22) = (   0.1089442   0.9645850   0.5481531  )
        23           Ta  tau(  23) = (   0.1114109   0.4239548   0.7864279  )
        24           O   tau(  24) = (   0.7727366   0.1069034   0.0209942  )
        25           O   tau(  25) = (   0.2786104   0.3232493   0.0425340  )
        26           O   tau(  26) = (   0.4534164   0.4741286   0.9670556  )
        27           O   tau(  27) = (   0.9435103   0.9165776   0.5534574  )
        28           O   tau(  28) = (   0.9430186   0.3129103   0.5317860  )
        29           Ta  tau(  29) = (   0.1085299   0.6211578   0.6096025  )
        30           Ta  tau(  30) = (   0.7768258   0.5902071   0.5238869  )
        31           O   tau(  31) = (   0.2860470   0.2513303   0.5557576  )
        32           O   tau(  32) = (   0.9385497   0.9238431   0.0545235  )
        33           O   tau(  33) = (   0.0897336   0.4966127   0.1296330  )
        34           O   tau(  34) = (   0.4711525   0.5342375   0.1736920  )
        35           O   tau(  35) = (   0.4640406   0.2641048   0.7000370  )
        36           Ta  tau(  36) = (   0.7683017   0.2680974   0.0520907  )
        37           Ta  tau(  37) = (   0.7778530   0.3702629   0.2954218  )
        38           O   tau(  38) = (   0.1046461   0.2833091   0.1902478  )
        39           O   tau(  39) = (   0.4532592   0.9769295   0.8749593  )
        40           O   tau(  40) = (   0.2860114   0.7504518   0.2808178  )
        41           O   tau(  41) = (   0.9427509   0.8130911   0.3060291  )
        42           O   tau(  42) = (   0.4545079   0.2545221   0.8968722  )
        43           Ta  tau(  43) = (   0.7650060   0.9384246   0.0434463  )
        44           Ta  tau(  44) = (   0.1048433   0.8528199   0.7928618  )
        45           O   tau(  45) = (   0.6082963   0.3945091   0.2847269  )
        46           O   tau(  46) = (   0.7752096   0.4695446   0.6290433  )
        47           O   tau(  47) = (   0.4645615   0.7667751   0.1375251  )
        48           O   tau(  48) = (   0.4211997   0.7991468   0.4382655  )
        49           O   tau(  49) = (   0.7852963   0.7274039   0.6354158  )
        50           Ta  tau(  50) = (   0.4532694   0.1154886   0.7871401  )
        51           Ta  tau(  51) = (   0.4391928   0.3272497   0.5645366  )
        52           O   tau(  52) = (   0.6357184   0.1141717   0.8126587  )
        53           O   tau(  53) = (   0.9425269   0.4185472   0.2841334  )
        54           O   tau(  54) = (   0.7745329   0.4657629   0.4285696  )
        55           O   tau(  55) = (   0.9386227   0.4244723   0.7853310  )
        56           O   tau(  56) = (   0.0923312   0.2529700   0.7036223  )
        57           Ta  tau(  57) = (   0.1049893   0.3533803   0.0461459  )
        58           Ta  tau(  58) = (   0.4447108   0.9135202   0.0087757  )
        59           O   tau(  59) = (   0.6052342   0.8067194   0.3133740  )
        60           O   tau(  60) = (   0.9618388   0.1052330   0.3028891  )
        61           O   tau(  61) = (   0.2776193   0.6236331   0.0404079  )
        62           O   tau(  62) = (   0.9615613   0.6057512   0.5369102  )
        63           O   tau(  63) = (   0.7767576   0.1329350   0.5854140  )
        64           Ta  tau(  64) = (   0.7744988   0.3006171   0.5604766  )
        65           Ta  tau(  65) = (   0.7766116   0.1009090   0.7332747  )
        66           O   tau(  66) = (   0.2847131   0.3924669   0.7839149  )
        67           O   tau(  67) = (   0.2837799   0.8906647   0.0549070  )
        68           O   tau(  68) = (   0.7766408   0.6309857   0.2523851  )
        69           O   tau(  69) = (   0.7757548   0.9683484   0.2104740  )
        70           O   tau(  70) = (   0.6047620   0.3065918   0.5244599  )
        71           Ta  tau(  71) = (   0.4383501   0.9352709   0.5446292  )
        72           Ta  tau(  72) = (   0.4273963   0.6439903   0.5157136  )
        73           O   tau(  73) = (   0.1370493   0.3822476   0.4198274  )
        74           O   tau(  74) = (   0.7493744   0.8651827   0.9153225  )
        75           O   tau(  75) = (   0.7686425   0.6080707   0.8173081  )
        76           O   tau(  76) = (   0.0911395   0.7524596   0.1353993  )
        77           O   tau(  77) = (   0.4050667   0.0845953   0.0464496  )
        78           Ta  tau(  78) = (   0.4378165   0.4342617   0.2923534  )
        79           Ta  tau(  79) = (   0.4389596   0.8271454   0.2743897  )
        80           O   tau(  80) = (   0.7659261   0.2817474   0.7146811  )
        81           O   tau(  81) = (   0.2740914   0.9342807   0.5885573  )
        82           O   tau(  82) = (   0.1204568   0.5911514   0.7590552  )
        83           O   tau(  83) = (   0.1078669   0.7721979   0.9379598  )
        84           O   tau(  84) = (   0.4217464   0.2993758   0.3999495  )
        85           Ta  tau(  85) = (   0.1085864   0.4650386   0.2917239  )
        86           Ta  tau(  86) = (   0.1111607   0.9243015   0.0524067  )
        87           O   tau(  87) = (   0.4216339   0.7521020   0.6328005  )
        88           O   tau(  88) = (   0.4224966   0.2544928   0.2062502  )
        89           O   tau(  89) = (   0.7849069   0.7419945   0.4416339  )
        90           O   tau(  90) = (   0.9392604   0.8041478   0.7999342  )
        91           O   tau(  91) = (   0.7739682   0.9687610   0.4123376  )
        92           Ta  tau(  92) = (   0.4446280   0.4132252   0.8324392  )
        93           Ta  tau(  93) = (   0.4277984   0.1448684   0.3231591  )
        94           O   tau(  94) = (   0.1102747   0.4862897   0.9382095  )
        95           O   tau(  95) = (   0.7735641   0.9373565   0.6982689  )
        96           O   tau(  96) = (   0.4338743   0.0616826   0.4566217  )
        97           O   tau(  97) = (   0.0939363   0.6221387   0.3205925  )
        98           O   tau(  98) = (   0.4120009   0.9832370   0.2587977  )
        99           Ta  tau(  99) = (   0.7776826   0.8710318   0.5428775  )
       100           Ta  tau( 100) = (   0.4527714   0.6171102   0.0507250  )
       101           O   tau( 101) = (   0.2440843   0.1328406   0.3161993  )
       102           O   tau( 102) = (   0.4324324   0.5582710   0.3836605  )
       103           O   tau( 103) = (   0.1274226   0.4438321   0.6253270  )
       104           O   tau( 104) = (   0.9400539   0.3037273   0.0373081  )
       105           O   tau( 105) = (   0.1200898   0.0905246   0.0797004  )
       106           Ta  tau( 106) = (   0.7670749   0.7690488   0.7858672  )
       107           Ta  tau( 107) = (   0.7746449   0.7983629   0.2766669  )
       108           O   tau( 108) = (   0.5918615   0.9460935   0.0771416  )
       109           O   tau( 109) = (   0.7846343   0.2415840   0.3963699  )
       110           O   tau( 110) = (   0.4083849   0.5857837   0.7959887  )
       111           O   tau( 111) = (   0.5933949   0.7936828   0.7722463  )
       112           O   tau( 112) = (   0.5941057   0.2878170   0.0644416  )
       113           Ta  tau( 113) = (   0.7647918   0.4382896   0.7949082  )
       114           Ta  tau( 114) = (   0.7769426   0.0891641   0.3145609  )
       115           O   tau( 115) = (   0.7860557   0.2271598   0.2032891  )
       116           O   tau( 116) = (   0.6009989   0.6190354   0.5284054  )
       117           O   tau( 117) = (   0.2729503   0.4350662   0.2491121  )
       118           O   tau( 118) = (   0.2789186   0.8234507   0.7967131  )
       119           O   tau( 119) = (   0.4564357   0.7565163   0.9419135  )
       120           Ta  tau( 120) = (   0.7760420   0.5998059   0.1039015  )
       121           Ta  tau( 121) = (   0.4286148   0.2397491   0.0530460  )
       122           O   tau( 122) = (   0.1063028   0.7836394   0.6483449  )
       123           O   tau( 123) = (   0.7730335   0.4355439   0.1381775  )
       124           O   tau( 124) = (   0.6350563   0.6143186   0.0250247  )
       125           O   tau( 125) = (   0.7657459   0.7804994   0.1227783  )
       126           O   tau( 126) = (   0.6009016   0.1192928   0.3094719  )

     number of k points=     1  Fermi-Dirac smearing, width (Ry)=  0.0200
                       cart. coord. in units 2pi/alat
        k(    1) = (   0.0000000   0.0000000   0.0000000), wk =   2.0000000

     Dense  grid:   802767 G-vectors     FFT dimensions: ( 150, 150, 150)

     Smooth grid:   283974 G-vectors     FFT dimensions: ( 108, 108, 108)

     Estimated max dynamical RAM per process >     300.60 MB

     Estimated total dynamical RAM >       9.39 GB

     Atomic positions and unit cell read from directory:
     /data/umari/tantala_small_cp/vtao.save/
     Atomic positions from file used, from input discarded
 

     Check: negative core charge=   -0.000001

     The initial density is read from file :
     /data/umari/tantala_small_cp/vtao.save/charge-density


     negative rho (up, down):  3.578E+00 0.000E+00
     Starting wfcs are random
     Checking if some PAW data can be deallocated... 

     total cpu time spent up to now is       25.0 secs

     Self-consistent Calculation

     iteration #  1     ecut=    50.00 Ry     beta= 0.60
     Davidson diagonalization with overlap
     ethr =  1.00E-05,  avg # of iterations = 37.0

     negative rho (up, down):  3.539E+00 0.000E+00

     total cpu time spent up to now is       75.7 secs

     total energy              =   -8501.15717615 Ry
     estimated scf accuracy    <     554.14926147 Ry

     iteration #  2     ecut=    50.00 Ry     beta= 0.60
     Davidson diagonalization with overlap
     ethr =  1.00E-02,  avg # of iterations = 11.0

     negative rho (up, down):  3.437E+00 0.000E+00

     total cpu time spent up to now is       96.3 secs

     total energy              =   -7752.28396542 Ry
     estimated scf accuracy    <   17346.89462251 Ry

     iteration #  3     ecut=    50.00 Ry     beta= 0.60
     Davidson diagonalization with overlap
     ethr =  1.00E-02,  avg # of iterations = 10.0

     negative rho (up, down):  3.426E+00 0.000E+00

     total cpu time spent up to now is      116.3 secs

     total energy              =   -8659.58667314 Ry
     estimated scf accuracy    <    2310.94329091 Ry

     iteration #  4     ecut=    50.00 Ry     beta= 0.60
     Davidson diagonalization with overlap
     ethr =  1.00E-02,  avg # of iterations =  7.0

     negative rho (up, down):  3.441E+00 0.000E+00

     total cpu time spent up to now is      130.3 secs

     total energy              =   -8813.29121322 Ry
     estimated scf accuracy    <     426.42690072 Ry

     iteration #  5     ecut=    50.00 Ry     beta= 0.60
     Davidson diagonalization with overlap
     ethr =  1.00E-02,  avg # of iterations =  5.0

     negative rho (up, down):  3.457E+00 0.000E+00

     total cpu time spent up to now is      140.3 secs

     total energy              =   -8825.10087336 Ry
     estimated scf accuracy    <     466.33862379 Ry

     iteration #  6     ecut=    50.00 Ry     beta= 0.60
     Davidson diagonalization with overlap
     ethr =  1.00E-02,  avg # of iterations =  6.0

     negative rho (up, down):  3.471E+00 0.000E+00

     total cpu time spent up to now is      149.0 secs

     total energy              =   -8854.47339390 Ry
     estimated scf accuracy    <      79.65291738 Ry

     iteration #  7     ecut=    50.00 Ry     beta= 0.60
     Davidson diagonalization with overlap
     ethr =  7.90E-03,  avg # of iterations =  3.0

     negative rho (up, down):  3.486E+00 0.000E+00

     total cpu time spent up to now is      155.7 secs

     total energy              =   -8857.62578463 Ry
     estimated scf accuracy    <      36.24749204 Ry

     iteration #  8     ecut=    50.00 Ry     beta= 0.60
     Davidson diagonalization with overlap
     ethr =  3.60E-03,  avg # of iterations =  7.0

     negative rho (up, down):  3.510E+00 0.000E+00

     total cpu time spent up to now is      163.9 secs

     total energy              =   -8862.05946721 Ry
     estimated scf accuracy    <      13.39370357 Ry

     iteration #  9     ecut=    50.00 Ry     beta= 0.60
     Davidson diagonalization with overlap
     ethr =  1.33E-03,  avg # of iterations =  9.0

     negative rho (up, down):  3.529E+00 0.000E+00

     total cpu time spent up to now is      175.1 secs

     total energy              =   -8862.26259753 Ry
     estimated scf accuracy    <      18.41182181 Ry

     iteration # 10     ecut=    50.00 Ry     beta= 0.60
     Davidson diagonalization with overlap
     ethr =  1.33E-03,  avg # of iterations =  5.0

     negative rho (up, down):  3.545E+00 0.000E+00

     total cpu time spent up to now is      183.0 secs

     total energy              =   -8864.40785284 Ry
     estimated scf accuracy    <       4.84003401 Ry

     iteration # 11     ecut=    50.00 Ry     beta= 0.60
     Davidson diagonalization with overlap
     ethr =  4.80E-04,  avg # of iterations =  7.0

     negative rho (up, down):  3.554E+00 0.000E+00

     total cpu time spent up to now is      191.7 secs

     total energy              =   -8864.75472667 Ry
     estimated scf accuracy    <       1.07997348 Ry

     iteration # 12     ecut=    50.00 Ry     beta= 0.60
     Davidson diagonalization with overlap
     ethr =  1.07E-04,  avg # of iterations = 13.0

     negative rho (up, down):  3.562E+00 0.000E+00

     total cpu time spent up to now is      208.8 secs

     total energy              =   -8864.76203786 Ry
     estimated scf accuracy    <       1.48567889 Ry

     iteration # 13     ecut=    50.00 Ry     beta= 0.60
     Davidson diagonalization with overlap
     ethr =  1.07E-04,  avg # of iterations =  3.0

     negative rho (up, down):  3.569E+00 0.000E+00

     total cpu time spent up to now is      216.2 secs

     total energy              =   -8864.87964108 Ry
     estimated scf accuracy    <       0.45580721 Ry

     iteration # 14     ecut=    50.00 Ry     beta= 0.60
     Davidson diagonalization with overlap
     c_bands:  1 eigenvalues not converged
     ethr =  4.52E-05,  avg # of iterations = 20.0

     negative rho (up, down):  3.571E+00 0.000E+00

     total cpu time spent up to now is      232.8 secs

     total energy              =   -8864.89914899 Ry
     estimated scf accuracy    <       0.22584700 Ry

     iteration # 15     ecut=    50.00 Ry     beta= 0.60
     Davidson diagonalization with overlap
     ethr =  2.24E-05,  avg # of iterations = 19.0

     negative rho (up, down):  3.572E+00 0.000E+00

     total cpu time spent up to now is      247.9 secs

     total energy              =   -8864.91654019 Ry
     estimated scf accuracy    <       0.09221084 Ry

     iteration # 16     ecut=    50.00 Ry     beta= 0.60
     Davidson diagonalization with overlap
     c_bands:  1 eigenvalues not converged
     ethr =  9.15E-06,  avg # of iterations = 20.0

     negative rho (up, down):  3.572E+00 0.000E+00

     total cpu time spent up to now is      263.6 secs

     total energy              =   -8864.92238426 Ry
     estimated scf accuracy    <       0.06102051 Ry

     iteration # 17     ecut=    50.00 Ry     beta= 0.60
     Davidson diagonalization with overlap
     ethr =  6.05E-06,  avg # of iterations = 15.0

     negative rho (up, down):  3.574E+00 0.000E+00

     total cpu time spent up to now is      273.8 secs

     total energy              =   -8864.92757031 Ry
     estimated scf accuracy    <       0.01877979 Ry

     iteration # 18     ecut=    50.00 Ry     beta= 0.60
     Davidson diagonalization with overlap
     ethr =  1.86E-06,  avg # of iterations = 13.0

     negative rho (up, down):  3.576E+00 0.000E+00

     total cpu time spent up to now is      285.3 secs

     total energy              =   -8864.92893007 Ry
     estimated scf accuracy    <       0.01114191 Ry

     iteration # 19     ecut=    50.00 Ry     beta= 0.60
     Davidson diagonalization with overlap
     ethr =  1.11E-06,  avg # of iterations =  3.0

     negative rho (up, down):  3.576E+00 0.000E+00

     total cpu time spent up to now is      292.6 secs

     total energy              =   -8864.92994249 Ry
     estimated scf accuracy    <       0.00230549 Ry

     iteration # 20     ecut=    50.00 Ry     beta= 0.60
     Davidson diagonalization with overlap
     ethr =  2.29E-07,  avg # of iterations =  5.0

     negative rho (up, down):  3.576E+00 0.000E+00

     total cpu time spent up to now is      301.3 secs

     total energy              =   -8864.93003643 Ry
     estimated scf accuracy    <       0.00352542 Ry

     iteration # 21     ecut=    50.00 Ry     beta= 0.60
     Davidson diagonalization with overlap
     ethr =  2.29E-07,  avg # of iterations =  3.0

     negative rho (up, down):  3.576E+00 0.000E+00

     total cpu time spent up to now is      308.2 secs

     total energy              =   -8864.93043203 Ry
     estimated scf accuracy    <       0.00061876 Ry

     iteration # 22     ecut=    50.00 Ry     beta= 0.60
     Davidson diagonalization with overlap
     ethr =  6.14E-08,  avg # of iterations =  2.0

     negative rho (up, down):  3.576E+00 0.000E+00

     total cpu time spent up to now is      314.6 secs

     total energy              =   -8864.93050998 Ry
     estimated scf accuracy    <       0.00016795 Ry

     iteration # 23     ecut=    50.00 Ry     beta= 0.60
     Davidson diagonalization with overlap
     ethr =  1.67E-08,  avg # of iterations =  3.0

     negative rho (up, down):  3.576E+00 0.000E+00

     total cpu time spent up to now is      321.8 secs

     total energy              =   -8864.93052943 Ry
     estimated scf accuracy    <       0.00012707 Ry

     iteration # 24     ecut=    50.00 Ry     beta= 0.60
     Davidson diagonalization with overlap
     ethr =  1.26E-08,  avg # of iterations =  3.0

     negative rho (up, down):  3.576E+00 0.000E+00

     total cpu time spent up to now is      328.4 secs

     total energy              =   -8864.93054210 Ry
     estimated scf accuracy    <       0.00001620 Ry

     iteration # 25     ecut=    50.00 Ry     beta= 0.60
     Davidson diagonalization with overlap
     ethr =  1.61E-09,  avg # of iterations =  5.0

     negative rho (up, down):  3.576E+00 0.000E+00

     total cpu time spent up to now is      336.1 secs

     End of self-consistent calculation

          k = 0.0000 0.0000 0.0000 ( 35508 PWs)   bands (ev):

   -61.7145 -61.5219 -61.5159 -61.4488 -61.4030 -61.3830 -61.3302 -61.3276
   -61.2786 -61.2329 -61.2105 -61.1773 -61.1652 -61.1450 -61.1259 -61.0872
   -61.0088 -60.9917 -60.9416 -60.9341 -60.9310 -60.9284 -60.7600 -60.7388
   -60.6566 -60.6083 -60.4830 -60.4393 -60.3873 -60.3605 -60.3454 -60.3063
   -59.8917 -59.8819 -59.6783 -58.7878 -28.3285 -28.1791 -28.1711 -28.1660
   -28.1467 -28.1001 -28.0744 -28.0689 -28.0368 -28.0173 -28.0106 -27.9986
   -27.9631 -27.9454 -27.9395 -27.9332 -27.9246 -27.9018 -27.9002 -27.8838
   -27.8834 -27.8797 -27.8679 -27.8585 -27.8462 -27.8395 -27.8337 -27.8289
   -27.8133 -27.8029 -27.7749 -27.7622 -27.7254 -27.7110 -27.6908 -27.6847
   -27.6730 -27.6617 -27.6556 -27.6540 -27.6526 -27.6441 -27.6358 -27.6175
   -27.6036 -27.6033 -27.5993 -27.5881 -27.5875 -27.5774 -27.5289 -27.5253
   -27.5031 -27.4862 -27.4848 -27.4757 -27.4735 -27.4698 -27.4543 -27.4502
   -27.4472 -27.4367 -27.4279 -27.4164 -27.4152 -27.4039 -27.4029 -27.3659
   -27.3309 -27.3164 -27.3119 -27.3093 -27.2764 -27.2675 -27.2088 -27.2055
   -27.1950 -27.1849 -27.1728 -27.1443 -27.1196 -27.0679 -27.0588 -27.0111
   -27.0108 -27.0083 -26.9824 -26.9810 -26.9766 -26.9470 -26.9281 -26.8925
   -26.8678 -26.8554 -26.8335 -26.8200 -26.8011 -26.7843 -26.7742 -26.7024
   -26.6164 -26.5760 -26.5377 -26.4570 -26.3989 -26.3075 -25.7748 -25.5199
   -11.8303 -11.6670 -11.4987 -11.3129 -11.2578 -11.1734 -11.0840 -11.0492
   -10.8976 -10.8338 -10.8163 -10.6864 -10.6676 -10.5651 -10.5231 -10.5028
   -10.4906 -10.4826 -10.4218 -10.4185 -10.3652 -10.3512 -10.3068 -10.2954
   -10.2270 -10.2205 -10.1896 -10.1762 -10.1470 -10.1207 -10.1123 -10.0659
   -10.0253  -9.9694  -9.9053  -9.8816  -9.8407  -9.8310  -9.8102  -9.7608
    -9.7483  -9.7414  -9.7220  -9.7006  -9.6838  -9.6469  -9.6336  -9.6176
    -9.5271  -9.4915  -9.4878  -9.4559  -9.4309  -9.3555  -9.3156  -9.3046
    -9.2224  -9.2027  -9.1912  -9.1716  -9.1626  -9.1547  -9.0733  -9.0529
    -9.0329  -8.9265  -8.8871  -8.8729  -8.8565  -8.8232  -8.7946  -8.7715
    -8.7383  -8.7061  -8.6789  -8.6391  -8.5512  -8.5251  -8.4957  -8.4343
    -8.3695  -8.3685  -8.2509  -8.2318  -8.0850  -8.0800  -8.0694  -7.9603
    -7.8711  -7.6135   0.7203   0.8115   0.8945   0.9398   0.9774   1.0483
     1.0652   1.0980   1.2100   1.2747   1.3841   1.4136   1.4740   1.5218
     1.5574   1.5932   1.6486   1.6757   1.7092   1.7492   1.7674   1.8100
     1.8338   1.8706   1.8867   1.9131   1.9378   1.9548   2.0024   2.0108
     2.0500   2.0637   2.1088   2.1342   2.1440   2.1634   2.1808   2.2029
     2.2319   2.2390   2.2552   2.2872   2.3075   2.3123   2.3515   2.3706
     2.3906   2.4144   2.4206   2.4305   2.4528   2.4907   2.5132   2.5449
     2.5664   2.5770   2.6147   2.6300   2.6588   2.6998   2.7198   2.7341
     2.7665   2.7766   2.8042   2.8247   2.8366   2.8596   2.9127   2.9144
     2.9253   2.9479   2.9860   3.0274   3.0322   3.0543   3.0573   3.1008
     3.1187   3.1579   3.1621   3.2053   3.2232   3.2360   3.2689   3.2844
     3.3028   3.3399   3.3549   3.3839   3.3991   3.4246   3.4317   3.4495
     3.4689   3.4980   3.5124   3.5483   3.5554   3.5987   3.6006   3.6453
     3.6547   3.6613   3.7140   3.7367   3.7562   3.7858   3.8189   3.8309
     3.8521   3.8696   3.9060   3.9095   3.9180   3.9532   3.9772   3.9922
     4.0120   4.0461   4.0612   4.0676   4.1095   4.1306   4.1411   4.1620
     4.1781   4.2076   4.2565   4.2616   4.2931   4.3033   4.3117   4.3208
     4.3470   4.3848   4.4016   4.4213   4.4508   4.4560   4.4739   4.4882
     4.5245   4.5505   4.5645   4.5724   4.5952   4.6339   4.6521   4.6667
     4.6932   4.7223   4.7473   4.7698   4.7823   4.7922   4.8133   4.8564
     4.8616   4.9021   4.9078   4.9306   4.9359   5.0028   5.0108   5.0348
     5.0516   5.0728   5.0918   5.1109   5.1451   5.1582   5.1743   5.1838
     5.2101   5.2233   5.2509   5.2580   5.2897   5.2953   5.3450   5.3649
     5.3739   5.3923   5.4301   5.4492   5.4764   5.4891   5.5023   5.5283
     5.5570   5.5694   5.5800   5.5956   5.6247   5.6344   5.6625   5.6691
     5.6834   5.6988   5.7360   5.7429   5.7580   5.7737   5.8325   5.8454
     5.8786   5.9106   5.9312   5.9504   5.9616   5.9764   5.9965   6.0220
     6.0637   6.0669   6.0704   6.0806   6.1032   6.1249   6.1880   6.1939
     6.2276   6.2589   6.2817   6.2938   6.3491   6.3541   6.3645   6.3804
     6.4143   6.4208   6.4433   6.4778   6.5152   6.5460   6.5549   6.5778
     6.5816   6.5994   6.6366   6.6455   6.6650   6.6970   6.7342   6.7495
     6.8028   6.8180   6.8608   6.9189   6.9684   7.0077   7.0401   7.0525
     7.0962   7.1202   7.1641   7.1929   7.1991   7.2778   7.3098   7.3318
     7.4128   7.4779   7.5531   7.5713   7.6539   7.7544   7.9776   8.0133
     9.0499   9.2934   9.3886   9.5340   9.5436   9.5590   9.6213   9.6975
     9.7525   9.8380   9.8497   9.8706   9.9039   9.9477   9.9906  10.0092
    10.0666  10.0860  10.1001  10.1275  10.1447  10.2079  10.2288  10.2574
    10.3154  10.3341  10.3684  10.3895  10.4093  10.4410  10.4932  10.5157
    10.5467  10.5642  10.6225  10.6538  10.6803  10.6931  10.7192  10.7889
    10.8002  10.8240  10.8434  10.8695  10.9135  10.9375  10.9823  10.9941
    11.0116  11.0552  11.0676  11.0970  11.1158  11.1409  11.1902  11.2270
    11.2641  11.2765  11.2964  11.3436  11.3546  11.4108  11.4162  11.4598
    11.4869  11.5084  11.5188  11.5292  11.5664  11.5936  11.6176  11.6302
    11.7006  11.7485  11.7770  11.8085  11.8434  11.8630  11.8776  11.9189
    11.9553  11.9820  12.0065  12.0393  12.0748  12.0827  12.1136  12.1201
    12.1538  12.1625  12.1963  12.2152  12.2374  12.2742  12.2960  12.3230
    12.3521  12.3708  12.4054  12.4516  12.4655

     the Fermi energy is     8.5667 ev

!    total energy              =   -8864.93053798 Ry
     estimated scf accuracy    <       0.00000967 Ry
     smearing contrib. (-TS)   =      -0.16367779 Ry
     internal energy E=F+TS    =   -8864.76686018 Ry

     convergence has been achieved in  25 iterations

     negative rho (up, down):  3.576E+00 0.000E+00

     Forces acting on atoms (cartesian axes, Ry/au):

     atom    1 type  1   force =    -0.06648923   -0.08657747   -0.31261120
     atom    2 type  1   force =    -0.10265229    0.08262123    0.02841934
     atom    3 type  2   force =    -0.12993688   -0.02725708    0.13343635
     atom    4 type  2   force =     0.10694360    0.02200362    0.06204704
     atom    5 type  2   force =    -0.00441020    0.02050762   -0.01533094
     atom    6 type  2   force =     0.00986071    0.02128800    0.08627213
     atom    7 type  2   force =    -0.05207895    0.00424932    0.06005381
     atom    8 type  1   force =    -0.03649017   -0.02867371    0.02881067
     atom    9 type  1   force =    -0.01021501    0.02479039    0.04441244
     atom   10 type  2   force =    -0.01012574    0.00203286   -0.01338468
     atom   11 type  2   force =     0.00604021    0.09328524   -0.02193690
     atom   12 type  2   force =     0.00019801   -0.04178444    0.00752166
     atom   13 type  2   force =    -0.02008066   -0.02542843   -0.02669939
     atom   14 type  2   force =     0.03764183    0.09227205   -0.01136821
     atom   15 type  1   force =     0.05787290    0.27975103   -0.03408144
     atom   16 type  1   force =     0.08307160   -0.01501959    0.02650244
     atom   17 type  2   force =    -0.04572304   -0.00895238   -0.06948933
     atom   18 type  2   force =     0.08488013   -0.11391238    0.00806948
     atom   19 type  2   force =     0.04703222   -0.07589170   -0.14250056
     atom   20 type  2   force =     0.01677911    0.03024243   -0.02458018
     atom   21 type  2   force =     0.03952468   -0.00665296   -0.09373088
     atom   22 type  1   force =    -0.07173330   -0.04415625   -0.03676835
     atom   23 type  1   force =    -0.13558004   -0.07961333   -0.02730500
     atom   24 type  2   force =    -0.09697260   -0.01847930   -0.10577286
     atom   25 type  2   force =    -0.04333766    0.00522802   -0.00610608
     atom   26 type  2   force =    -0.08207645    0.12968408   -0.13150768
     atom   27 type  2   force =    -0.02601120   -0.02401624    0.02720155
     atom   28 type  2   force =     0.19087174   -0.31860346   -0.06979646
     atom   29 type  1   force =    -0.00395477    0.12733649    0.14096628
     atom   30 type  1   force =     0.04577053   -0.06257232   -0.04342486
     atom   31 type  2   force =    -0.06160936    0.02810921    0.00313334
     atom   32 type  2   force =     0.15910228    0.02381565    0.13142695
     atom   33 type  2   force =    -0.05477665   -0.17583523    0.05131124
     atom   34 type  2   force =     0.04380536    0.03000087   -0.00401509
     atom   35 type  2   force =    -0.01964982   -0.03365197    0.00753687
     atom   36 type  1   force =    -0.22530555    0.02654461   -0.12205298
     atom   37 type  1   force =    -0.04766009   -0.11450291   -0.04784451
     atom   38 type  2   force =     0.07538335   -0.01584222    0.03446044
     atom   39 type  2   force =    -0.06408664   -0.00907714    0.07909290
     atom   40 type  2   force =    -0.08505339    0.00673812    0.03948759
     atom   41 type  2   force =    -0.05078010    0.03271587    0.03157267
     atom   42 type  2   force =     0.05011303    0.00637249    0.10014940
     atom   43 type  1   force =     0.19670779   -0.13126587    0.08483335
     atom   44 type  1   force =     0.01719006   -0.02699914    0.14885437
     atom   45 type  2   force =     0.02768904    0.01778788   -0.03052781
     atom   46 type  2   force =    -0.02177843    0.05504061   -0.06032979
     atom   47 type  2   force =     0.04527594    0.01639598    0.02847026
     atom   48 type  2   force =    -0.13076861    0.16180553    0.21370381
     atom   49 type  2   force =    -0.00254377    0.08241764   -0.03834605
     atom   50 type  1   force =     0.07354573   -0.09966493    0.14278818
     atom   51 type  1   force =     0.02768007   -0.04691033    0.01386793
     atom   52 type  2   force =    -0.11480221   -0.05004053   -0.01843096
     atom   53 type  2   force =     0.04012173    0.03933428   -0.18344494
     atom   54 type  2   force =     0.05794364    0.10172934    0.01119669
     atom   55 type  2   force =     0.00832632    0.02275919    0.00957944
     atom   56 type  2   force =     0.16193255   -0.06989413    0.13574553
     atom   57 type  1   force =     0.02879386   -0.11618793    0.03054245
     atom   58 type  1   force =    -0.07069501   -0.06585045   -0.00413004
     atom   59 type  2   force =     0.02407164    0.12214966    0.02111570
     atom   60 type  2   force =    -0.02073396   -0.01465727    0.00288732
     atom   61 type  2   force =     0.03472310    0.06120684    0.07581420
     atom   62 type  2   force =     0.00954732    0.11047819   -0.06509237
     atom   63 type  2   force =     0.01778332   -0.12755187    0.06793012
     atom   64 type  1   force =     0.00714923    0.39348629   -0.09783297
     atom   65 type  1   force =    -0.01889048   -0.05123794    0.00460455
     atom   66 type  2   force =     0.02314561   -0.06431225    0.10953475
     atom   67 type  2   force =     0.05981636   -0.00882139   -0.14858027
     atom   68 type  2   force =    -0.03870761    0.02521456    0.03617149
     atom   69 type  2   force =     0.04388896   -0.00281067   -0.02963179
     atom   70 type  2   force =     0.09507358    0.03469379    0.12082836
     atom   71 type  1   force =    -0.05450808   -0.08476689    0.09136806
     atom   72 type  1   force =    -0.04050368    0.00634335   -0.01762771
     atom   73 type  2   force =     0.09462512   -0.09871801    0.20390408
     atom   74 type  2   force =     0.07194708    0.08639609   -0.11641633
     atom   75 type  2   force =    -0.04269321    0.03499845    0.00052417
     atom   76 type  2   force =     0.03965855    0.13771574   -0.02491600
     atom   77 type  2   force =    -0.10499171   -0.18162232   -0.13921448
     atom   78 type  1   force =     0.16708465   -0.00125376   -0.02909325
     atom   79 type  1   force =    -0.04826278   -0.08601828   -0.03863542
     atom   80 type  2   force =     0.10847406    0.19961073   -0.18455431
     atom   81 type  2   force =     0.01052588    0.06119339   -0.01890321
     atom   82 type  2   force =    -0.11885147    0.07468960    0.02810592
     atom   83 type  2   force =    -0.04598468    0.05377128   -0.02426335
     atom   84 type  2   force =    -0.05364307    0.05333938   -0.02046129
     atom   85 type  1   force =     0.07557469   -0.16145381    0.03799002
     atom   86 type  1   force =     0.04336380    0.15442133   -0.04765243
     atom   87 type  2   force =    -0.11122681   -0.01344740    0.04775864
     atom   88 type  2   force =     0.01217626    0.06317646   -0.05119090
     atom   89 type  2   force =    -0.09092995    0.06766721   -0.02939151
     atom   90 type  2   force =     0.19403018    0.03185778    0.09284045
     atom   91 type  2   force =    -0.10719076   -0.02892078   -0.07164686
     atom   92 type  1   force =     0.14129956   -0.21460164   -0.07268733
     atom   93 type  1   force =    -0.14360536    0.09016226    0.11001251
     atom   94 type  2   force =     0.08732470    0.01584509   -0.00979873
     atom   95 type  2   force =    -0.00128269   -0.05874785   -0.03611666
     atom   96 type  2   force =     0.05554545    0.04679211   -0.00723414
     atom   97 type  2   force =     0.04785092    0.06087745   -0.02776418
     atom   98 type  2   force =    -0.13539665   -0.10008569    0.00838545
     atom   99 type  1   force =     0.07607411   -0.01171621    0.07322063
     atom  100 type  1   force =     0.08563869   -0.07834023    0.02003729
     atom  101 type  2   force =     0.01922706   -0.05284466   -0.07379065
     atom  102 type  2   force =    -0.05888597   -0.05077673    0.03671339
     atom  103 type  2   force =     0.11490906    0.16250060    0.09078266
     atom  104 type  2   force =     0.11337902    0.01380190   -0.04209830
     atom  105 type  2   force =    -0.09720047   -0.05620512   -0.05022416
     atom  106 type  1   force =    -0.10544111   -0.14485162   -0.16178502
     atom  107 type  1   force =    -0.08059324   -0.01993048   -0.20236186
     atom  108 type  2   force =     0.02827912    0.05242360    0.06465190
     atom  109 type  2   force =     0.02197633    0.05392048    0.00196788
     atom  110 type  2   force =    -0.09950732   -0.13806489    0.03030248
     atom  111 type  2   force =    -0.03871237   -0.00869968   -0.08896699
     atom  112 type  2   force =     0.02571145    0.03992928   -0.04767166
     atom  113 type  1   force =     0.02686350   -0.03823436    0.05919456
     atom  114 type  1   force =    -0.08240907    0.24253638   -0.08079265
     atom  115 type  2   force =     0.02008996   -0.04608189    0.01599510
     atom  116 type  2   force =     0.05649711   -0.03403549    0.04253352
     atom  117 type  2   force =    -0.01792583    0.06934065    0.19698079
     atom  118 type  2   force =     0.03440261    0.10196117    0.04042149
     atom  119 type  2   force =    -0.05051902    0.02978000   -0.03267720
     atom  120 type  1   force =     0.14908395   -0.01783487   -0.06522078
     atom  121 type  1   force =    -0.02720535   -0.09759189   -0.00051335
     atom  122 type  2   force =    -0.00388378   -0.01925312    0.24814450
     atom  123 type  2   force =    -0.04823436   -0.04777388   -0.07239345
     atom  124 type  2   force =    -0.05759316   -0.01554907    0.05243456
     atom  125 type  2   force =    -0.04942209   -0.22081676   -0.04408491
     atom  126 type  2   force =    -0.09459604   -0.00819805   -0.01781945

     Total force =     1.689868     Total SCF correction =     0.014374

     Entering Dynamics:    iteration =  3177
                           time      =  15.3648 pico-seconds


     Canonical sampling velocity rescaling

ATOMIC_POSITIONS (crystal)
Ta            0.5680876641        0.6291518530        0.9888026250
Ta           -0.0474569854       -0.0518238677        0.7545421644
O             0.9562610576        0.2904990615        0.3863214559
O             0.2600763702        0.6503360986        0.4069348749
O             0.1742809032       -0.1186446878        0.4573217575
O             0.5896190662        1.2023868337        1.2892703812
O             0.9985046313        0.3500691684       -0.0676701650
Ta            0.3628441300        0.4033573727        0.1012340086
Ta           -0.0246157160        0.4067839144        0.0723993661
O            -0.2865265669        0.3370081362        1.4173959087
O             0.0822697197        1.1122148572        0.1621452788
O             0.2431774838        0.4681133585        0.2406738918
O             0.6584829603        0.3617399672        0.7569909135
O             0.2782136827        0.6139798037        0.7662442777
Ta            0.0125845932       -0.1101525545        0.4934110847
Ta           -0.0339806692        0.0387023791        0.2116280696
O             0.4537391483        0.7445127618        0.5760914501
O             0.6601949637        0.1655572048        0.5486983714
O            -0.2175586880        0.8497822068        0.8231458099
O             0.7304184604        0.9737059846        0.5671050295
O             0.7763962963        0.4995090082        0.8837322952
Ta            0.3224834543        0.5087729513        0.4625045693
Ta           -0.1278784646        0.6277875132        0.8192202451
O             0.8916488770        0.2075717728        0.1309881846
O             0.3333330441        0.5640791532        0.0671840854
O             0.6559116710        0.0693052995        0.8422033802
O             0.5032585840        1.1077602386        0.6608802187
O             1.1689188999        0.2262569184        0.3243136396
Ta            0.1889709439        0.7422646505        0.7273456798
Ta            0.7202469293        0.7847624085        0.6831867019
O             0.4296242551       -0.1733884593        0.3333851928
O             0.6838402035        1.3255464933       -0.0521562757
O             0.5375752034        0.4914975118        0.0338673628
O             0.0480363369        0.0535758366       -0.1782542270
O             0.1135714278        0.2446203344        0.5841997165
Ta            0.5554719146        0.3532855867       -0.1135019939
Ta            0.8469423389        0.7004200226        0.4606380707
O             0.0357638181        0.3404056809        0.1916201417
O             0.6193072928        0.8971630096        0.6864862383
O            -0.0496034170        0.4950690501        0.7821993330
O             1.1760890149        0.4441698556        0.4437684041
O             0.3612397333        0.3658032244        0.9280648125
Ta            0.7178052796        0.9556530770       -0.0755161232
Ta            0.0121619504        0.7846135575        1.0262098728
O             1.2466146381        0.7445816316        0.2170767005
O             0.4810609121        0.4951116544        0.8401440304
O             0.3998670670        0.5408835259        0.5956553179
O             0.5045583574        0.7159319628        0.0749543348
O             0.8607592796        0.9221875573        0.4190534756
Ta            0.7504662129        0.0515517028        0.4201233526
Ta            0.6714567670        0.0611377728        0.6742305926
O             0.5961224896       -0.1295667727        0.9484706907
O             1.0068061164        0.8179264046        0.8820016476
O             0.6631694483        0.6528811293        0.7573995507
O             0.8460495931        0.2353645151        0.8691828785
O             0.0414448958       -0.1402125439        0.6510259067
Ta           -0.2205340908        0.2108527689        0.0183385905
Ta            0.3870437728        1.1508372688       -0.1103816981
O             0.8520731277        0.5491410397        0.4441634169
O             1.0790648666       -0.4863027039        0.0724915409
O             0.3503337325        0.9635104889        0.5133286878
O             1.0048968258        1.0649663895        0.6176670026
O             1.2680629016        0.0003146794        0.2163102856
Ta            1.0905187529        0.3410845886        0.3500139633
Ta            0.9617356077        0.2288470760        0.5700471525
O             0.6296346428        0.4829618965        1.5331320498
O             0.3487108241        0.8607085004        0.0555755426
O             0.6947729999        0.7114915085        0.5208521757
O             0.8072247079        1.3020985224       -0.3664147569
O             0.5107941935        0.2590281308        0.4932309435
Ta            0.3419280131        0.8685608487        0.2067789718
Ta            0.3343566626        0.8053417758        0.4674770004
O             0.3144061976        0.1808848600        0.4506239980
O             0.6187063266        0.9936259365        1.3841695475
O             0.8757235026        0.6700402862        0.6624535769
O             0.2422384310        0.2914382079        0.1007502149
O             0.3510579864        0.1609586779        0.2497666400
Ta            0.6917811259        0.3767935669        0.2536216750
Ta            0.4275299267        0.8529289910       -0.0807724208
O             0.4112113399        0.3246262102        0.2248060303
O             0.0878788132        1.6333007326       -0.3114583663
O            -0.0523784077        0.6770712611        1.1514093009
O             0.1345636114        0.7048012655        1.0482039147
O             0.5318203627        0.1923106744       -0.0634800643
Ta            0.0899298179        0.4767117011        0.6888500742
Ta            0.2001141428        0.5879436244        0.1555186493
O             0.1864301493        0.4478098813        0.8279845323
O             0.3354002560        0.0877691536        0.0229815602
O             0.4880941200        0.5627103723        0.3920421166
O             0.6999901275        0.6240300109        1.0634127230
O             0.8095150325        1.0878326506        0.2736954807
Ta            0.3290785185        0.4831039788        0.7859268891
Ta            0.4485232133        0.2362755944        0.3578928860
O            -0.0874082460        0.6546977039        0.9642560363
O             0.9984936716        1.3203119168        0.7178969619
O             0.2288535577        0.4331661311        0.6378028420
O             0.2420702628        0.0720857038        0.6988606385
O             1.0591188255        0.9252341676        0.1112788704
Ta            1.2397176062        1.1445370971        0.1473214482
Ta            0.5352499199        0.6224966872        0.5262140292
O             0.0099518451        0.0392254704        0.3657748566
O             0.8611273179        0.8713967089        0.6104406431
O            -0.2962569636        0.0368557488        1.0514954661
O             0.6485366747        0.2343915561        0.1236310450
O            -0.1504884345        0.4194835961        0.1919663063
Ta            0.6419578400        1.0838872644        1.2075034078
Ta            0.3695216130        1.0949095612        0.5991780519
O             0.4103581891        0.9895920169       -0.1688097984
O             1.3705687572        0.3788603706        0.4158312728
O             0.8612051522        0.1767023013        0.4627662471
O             0.2842947338        0.8143350106        0.8494564820
O             1.2190274626        0.1894613025       -0.1183762787
Ta            0.8268771071        0.3737174034        0.7890220453
Ta            0.6566768341        0.3143522326        0.5623183976
O             0.3995221630        0.3016970658       -0.2503615186
O             0.2328440515        0.7863689269        0.5984039965
O             0.5372138861       -0.0027685196        0.1145446647
O             0.4520893341        0.6998392963        0.8700342758
O            -0.1064836319        0.9922443186        0.9422099422
Ta            0.7961024586        0.7123985370        0.1458660693
Ta            0.1305022463        0.1775373836       -0.2486247650
O            -0.1898567418        0.8210750354        0.0071719576
O             0.8033145128        0.7481409258        0.3007997157
O             0.6565486743        1.5124245664        0.2088898417
O             1.0023436283        0.7617368843        0.4353780409
O             0.8417391479        0.0538927850       -0.2716648704


     kinetic energy (Ekin) =           3.62293902 Ry
     temperature           =        3050.75642711 K 
     Ekin + Etot (const)   =       -8861.30759895 Ry

     Linear momentum :    0.0000000000   -0.0000000000    0.0000000000

     Writing config-only to output data dir /data/umari/tantala_small_cp/vtao.save/
     NEW-OLD atomic charge density approx. for the potential

     Check: negative core charge=   -0.000001

     negative rho (up, down):  3.573E+00 0.000E+00

     total cpu time spent up to now is      340.2 secs

     Self-consistent Calculation

     iteration #  1     ecut=    50.00 Ry     beta= 0.60
     Davidson diagonalization with overlap
     c_bands:  2 eigenvalues not converged
     ethr =  1.00E-06,  avg # of iterations = 40.0

     negative rho (up, down):  3.577E+00 0.000E+00

     total cpu time spent up to now is      379.0 secs

     total energy              =   -8864.36187060 Ry
     estimated scf accuracy    <       1.22283960 Ry

     iteration #  2     ecut=    50.00 Ry     beta= 0.60
     Davidson diagonalization with overlap
     ethr =  1.21E-04,  avg # of iterations = 10.0

     negative rho (up, down):  3.578E+00 0.000E+00

     total cpu time spent up to now is      393.4 secs

     total energy              =   -8863.45369480 Ry
     estimated scf accuracy    <      12.19853286 Ry

     iteration #  3     ecut=    50.00 Ry     beta= 0.60
     Davidson diagonalization with overlap
     ethr =  1.21E-04,  avg # of iterations = 12.0

     negative rho (up, down):  3.578E+00 0.000E+00

     total cpu time spent up to now is      406.6 secs

     total energy              =   -8864.84344820 Ry
     estimated scf accuracy    <       1.10584997 Ry

     iteration #  4     ecut=    50.00 Ry     beta= 0.60
     Davidson diagonalization with overlap
     ethr =  1.10E-04,  avg # of iterations =  3.0

     negative rho (up, down):  3.578E+00 0.000E+00

     total cpu time spent up to now is      413.6 secs

     total energy              =   -8864.91837645 Ry
     estimated scf accuracy    <       0.30545274 Ry

     iteration #  5     ecut=    50.00 Ry     beta= 0.60
     Davidson diagonalization with overlap
     ethr =  3.03E-05,  avg # of iterations = 17.0

     negative rho (up, down):  3.578E+00 0.000E+00

     total cpu time spent up to now is      429.0 secs

     total energy              =   -8864.95888605 Ry
     estimated scf accuracy    <       0.33655514 Ry

     iteration #  6     ecut=    50.00 Ry     beta= 0.60
     Davidson diagonalization with overlap
     ethr =  3.03E-05,  avg # of iterations = 10.0

     negative rho (up, down):  3.578E+00 0.000E+00

     total cpu time spent up to now is      437.8 secs

     total energy              =   -8864.97716016 Ry
     estimated scf accuracy    <       0.04695606 Ry

     iteration #  7     ecut=    50.00 Ry     beta= 0.60
     Davidson diagonalization with overlap
     ethr =  4.66E-06,  avg # of iterations = 16.0

     negative rho (up, down):  3.579E+00 0.000E+00

     total cpu time spent up to now is      451.9 secs

     total energy              =   -8864.98112656 Ry
     estimated scf accuracy    <       0.01572916 Ry

     iteration #  8     ecut=    50.00 Ry     beta= 0.60
     Davidson diagonalization with overlap
     c_bands:  2 eigenvalues not converged
     ethr =  1.56E-06,  avg # of iterations = 20.0

     negative rho (up, down):  3.579E+00 0.000E+00

     total cpu time spent up to now is      468.3 secs

     total energy              =   -8864.98146182 Ry
     estimated scf accuracy    <       0.00968969 Ry

     iteration #  9     ecut=    50.00 Ry     beta= 0.60
     Davidson diagonalization with overlap
     ethr =  9.61E-07,  avg # of iterations =  3.0

     negative rho (up, down):  3.579E+00 0.000E+00

     total cpu time spent up to now is      475.0 secs

     total energy              =   -8864.98230141 Ry
     estimated scf accuracy    <       0.00631289 Ry

     iteration # 10     ecut=    50.00 Ry     beta= 0.60
     Davidson diagonalization with overlap
     ethr =  6.26E-07,  avg # of iterations =  3.0

     negative rho (up, down):  3.579E+00 0.000E+00

     total cpu time spent up to now is      480.8 secs

     total energy              =   -8864.98273936 Ry
     estimated scf accuracy    <       0.00157286 Ry

     iteration # 11     ecut=    50.00 Ry     beta= 0.60
     Davidson diagonalization with overlap
     ethr =  1.56E-07,  avg # of iterations =  2.0

     negative rho (up, down):  3.579E+00 0.000E+00

     total cpu time spent up to now is      487.2 secs

     total energy              =   -8864.98272873 Ry
     estimated scf accuracy    <       0.00072179 Ry

     iteration # 12     ecut=    50.00 Ry     beta= 0.60
     Davidson diagonalization with overlap
     ethr =  7.16E-08,  avg # of iterations =  5.0

     negative rho (up, down):  3.579E+00 0.000E+00

     total cpu time spent up to now is      495.4 secs

     total energy              =   -8864.98282185 Ry
     estimated scf accuracy    <       0.00078272 Ry

     iteration # 13     ecut=    50.00 Ry     beta= 0.60
     Davidson diagonalization with overlap
     ethr =  7.16E-08,  avg # of iterations =  2.0

     negative rho (up, down):  3.579E+00 0.000E+00

     total cpu time spent up to now is      501.6 secs

     total energy              =   -8864.98288696 Ry
     estimated scf accuracy    <       0.00006878 Ry

     iteration # 14     ecut=    50.00 Ry     beta= 0.60
     Davidson diagonalization with overlap
     ethr =  6.82E-09,  avg # of iterations =  5.0

     negative rho (up, down):  3.579E+00 0.000E+00

     total cpu time spent up to now is      509.3 secs

     total energy              =   -8864.98289411 Ry
     estimated scf accuracy    <       0.00001812 Ry

     iteration # 15     ecut=    50.00 Ry     beta= 0.60
     Davidson diagonalization with overlap
     ethr =  1.80E-09,  avg # of iterations =  3.0

     negative rho (up, down):  3.579E+00 0.000E+00

     total cpu time spent up to now is      515.9 secs

     End of self-consistent calculation

          k = 0.0000 0.0000 0.0000 ( 35508 PWs)   bands (ev):

   -61.7434 -61.6888 -61.5676 -61.4141 -61.4060 -61.4004 -61.3504 -61.3358
   -61.3075 -61.2832 -61.2688 -61.1581 -61.1580 -61.1238 -61.0832 -61.0204
   -60.9749 -60.9731 -60.9632 -60.9249 -60.8028 -60.6894 -60.6598 -60.6128
   -60.5680 -60.5331 -60.5279 -60.5271 -60.4666 -60.3975 -60.0873 -60.0575
   -60.0377 -59.8130 -59.6367 -59.2883 -28.3396 -28.2902 -28.2594 -28.2232
   -28.1806 -28.1377 -28.1198 -28.1056 -28.0043 -27.9993 -27.9772 -27.9602
   -27.9526 -27.9486 -27.9414 -27.9296 -27.9092 -27.9072 -27.9049 -27.9013
   -27.8681 -27.8603 -27.8545 -27.8497 -27.8213 -27.8176 -27.8065 -27.7992
   -27.7971 -27.7863 -27.7849 -27.7772 -27.7599 -27.7578 -27.7542 -27.7442
   -27.7375 -27.7198 -27.7069 -27.7008 -27.6921 -27.6878 -27.6806 -27.6520
   -27.6308 -27.5950 -27.5928 -27.5784 -27.5551 -27.5254 -27.5165 -27.5113
   -27.5094 -27.4882 -27.4714 -27.4579 -27.4557 -27.4357 -27.4263 -27.4050
   -27.4021 -27.3847 -27.3747 -27.3216 -27.3098 -27.2765 -27.2677 -27.2667
   -27.2530 -27.2301 -27.2289 -27.2219 -27.2051 -27.1939 -27.1847 -27.1782
   -27.1582 -27.1201 -27.1126 -27.1029 -27.1018 -27.0758 -27.0677 -27.0609
   -27.0410 -27.0168 -26.9745 -26.9641 -26.9055 -26.8963 -26.8901 -26.8833
   -26.8765 -26.8507 -26.8332 -26.8166 -26.7934 -26.6575 -26.6387 -26.5941
   -26.5492 -26.5404 -26.5078 -26.3958 -26.3235 -26.3005 -26.1216 -25.9392
   -11.9668 -11.7959 -11.5892 -11.3025 -11.2385 -11.1839 -11.0791 -10.9951
   -10.9389 -10.8402 -10.7541 -10.7427 -10.7025 -10.6398 -10.6061 -10.5091
   -10.4592 -10.4375 -10.4220 -10.4030 -10.3856 -10.3158 -10.2833 -10.2559
   -10.2340 -10.2036 -10.1515 -10.1284 -10.1224 -10.0998 -10.0560 -10.0171
    -9.9834  -9.9643  -9.9305  -9.9111  -9.8606  -9.8253  -9.8041  -9.7771
    -9.7435  -9.7213  -9.6925  -9.6589  -9.6481  -9.6154  -9.5970  -9.5857
    -9.5594  -9.5328  -9.4745  -9.4556  -9.4319  -9.4145  -9.3771  -9.3607
    -9.3236  -9.2956  -9.2670  -9.2459  -9.2165  -9.1701  -9.1594  -9.1193
    -9.0534  -8.9921  -8.9635  -8.9051  -8.8224  -8.7611  -8.7492  -8.7393
    -8.6861  -8.6719  -8.6263  -8.5235  -8.4975  -8.4905  -8.3848  -8.3735
    -8.3301  -8.2768  -8.2539  -8.2232  -8.1146  -8.0722  -8.0300  -7.9160
    -7.6979  -7.3440   0.5952   0.7320   0.7639   0.8573   0.9065   1.0243
     1.0841   1.2138   1.2636   1.3145   1.3474   1.3537   1.4036   1.4583
     1.5394   1.5568   1.5959   1.6934   1.7296   1.7680   1.7723   1.8226
     1.8467   1.8569   1.8766   1.9109   1.9313   1.9639   1.9800   2.0027
     2.0435   2.0889   2.1015   2.1353   2.1503   2.1719   2.1932   2.2018
     2.2423   2.2568   2.2727   2.2873   2.3232   2.3287   2.3504   2.3732
     2.3970   2.4181   2.4357   2.4601   2.4710   2.4905   2.5207   2.5579
     2.5822   2.5940   2.6317   2.6410   2.6844   2.6893   2.7087   2.7397
     2.7575   2.7868   2.8028   2.8167   2.8323   2.8595   2.8955   2.9254
     2.9359   2.9713   2.9952   3.0227   3.0420   3.0498   3.0900   3.1030
     3.1220   3.1374   3.1678   3.1900   3.1991   3.2392   3.2443   3.2805
     3.2938   3.3235   3.3347   3.3591   3.3748   3.4050   3.4102   3.4331
     3.4590   3.4696   3.5032   3.5289   3.5329   3.5938   3.6193   3.6284
     3.6449   3.6650   3.7009   3.7421   3.7548   3.7770   3.8001   3.8176
     3.8474   3.8718   3.8800   3.9125   3.9286   3.9624   3.9635   3.9921
     4.0144   4.0261   4.0533   4.0698   4.0963   4.1180   4.1458   4.1506
     4.1852   4.1897   4.2147   4.2398   4.2516   4.2963   4.3285   4.3442
     4.3620   4.3747   4.3814   4.4119   4.4451   4.4588   4.4775   4.4930
     4.5283   4.5517   4.5644   4.5815   4.5976   4.6347   4.6495   4.6735
     4.6847   4.7086   4.7367   4.7792   4.7891   4.7980   4.8294   4.8337
     4.8709   4.8776   4.9119   4.9246   4.9380   4.9417   4.9616   5.0002
     5.0070   5.0362   5.0698   5.1061   5.1201   5.1460   5.1669   5.1855
     5.2108   5.2384   5.2475   5.2750   5.2836   5.2972   5.3226   5.3323
     5.3807   5.4106   5.4186   5.4383   5.4466   5.4574   5.4996   5.5082
     5.5323   5.5426   5.5633   5.5938   5.6014   5.6222   5.6497   5.6650
     5.6856   5.7149   5.7205   5.7559   5.7785   5.7925   5.8258   5.8521
     5.9039   5.9091   5.9379   5.9417   5.9797   6.0011   6.0201   6.0468
     6.0606   6.0643   6.0870   6.1179   6.1423   6.1586   6.1717   6.2065
     6.2162   6.2480   6.2857   6.2937   6.3112   6.3327   6.3606   6.3998
     6.4468   6.4619   6.4888   6.5238   6.5277   6.5525   6.5658   6.6222
     6.6315   6.6615   6.6876   6.7078   6.7662   6.8125   6.8261   6.8411
     6.8532   6.8769   6.9341   6.9571   6.9756   7.0609   7.0805   7.1164
     7.1196   7.1863   7.2261   7.2511   7.2688   7.3163   7.3599   7.3972
     7.4993   7.5832   7.6058   7.6572   7.6965   7.8459   8.0444   8.0928
     9.2136   9.2407   9.4766   9.5209   9.5458   9.5770   9.6760   9.7171
     9.7810   9.8146   9.8488   9.8640   9.8885   9.9303   9.9654   9.9823
    10.0726  10.0779  10.1080  10.1125  10.1562  10.1617  10.2028  10.2736
    10.3137  10.3224  10.3316  10.3695  10.4132  10.4281  10.4423  10.4639
    10.5146  10.5648  10.5908  10.6170  10.6378  10.6848  10.6975  10.7198
    10.7685  10.8458  10.8489  10.8995  10.9292  10.9383  10.9733  10.9922
    11.0381  11.0912  11.0967  11.1336  11.1600  11.1788  11.2056  11.2877
    11.2968  11.3148  11.3378  11.3606  11.3715  11.3929  11.4189  11.4475
    11.4684  11.5326  11.5406  11.5922  11.6018  11.6270  11.6487  11.6831
    11.6941  11.7141  11.7724  11.7994  11.8219  11.8430  11.8826  11.9136
    11.9449  11.9867  12.0272  12.0680  12.0739  12.1040  12.1098  12.1359
    12.1750  12.1927  12.2158  12.2481  12.3199  12.3387  12.3616  12.4018
    12.4220  12.4480  12.4717  12.5040  12.5289

     the Fermi energy is     8.6216 ev

!    total energy              =   -8864.98289361 Ry
     estimated scf accuracy    <       0.00000361 Ry
     smearing contrib. (-TS)   =      -0.17354854 Ry
     internal energy E=F+TS    =   -8864.80934507 Ry

     convergence has been achieved in  15 iterations

     negative rho (up, down):  3.579E+00 0.000E+00

     Forces acting on atoms (cartesian axes, Ry/au):

     atom    1 type  1   force =    -0.03721192   -0.00793512   -0.30596264
     atom    2 type  1   force =    -0.09686382    0.04101556    0.05657648
     atom    3 type  2   force =     0.00731982    0.04970169    0.09320317
     atom    4 type  2   force =     0.08380227    0.06219918    0.06435586
     atom    5 type  2   force =    -0.02025513    0.00034646   -0.05767049
     atom    6 type  2   force =    -0.01830342    0.05137451    0.10557288
     atom    7 type  2   force =    -0.02725601    0.00911323    0.06386521
     atom    8 type  1   force =    -0.06697250    0.00157635   -0.04852070
     atom    9 type  1   force =    -0.10125151   -0.04554069    0.03666516
     atom   10 type  2   force =    -0.01168081    0.01478516   -0.07781213
     atom   11 type  2   force =     0.05259622    0.09208373   -0.03330105
     atom   12 type  2   force =    -0.00381042   -0.01409269   -0.02634064
     atom   13 type  2   force =    -0.01669551   -0.03048000   -0.07093657
     atom   14 type  2   force =    -0.04507099    0.25100956   -0.03562689
     atom   15 type  1   force =     0.06439730    0.33351791    0.04658425
     atom   16 type  1   force =     0.06534248   -0.03845765    0.08223835
     atom   17 type  2   force =    -0.06439934    0.08346379   -0.06805975
     atom   18 type  2   force =     0.07785730   -0.17180615    0.00698366
     atom   19 type  2   force =     0.07202646   -0.08453276   -0.14444203
     atom   20 type  2   force =    -0.01425472    0.05934622   -0.09760495
     atom   21 type  2   force =     0.04975620    0.02251167   -0.08214734
     atom   22 type  1   force =    -0.09747307    0.03382532   -0.00738886
     atom   23 type  1   force =    -0.13808089   -0.04563412    0.01358457
     atom   24 type  2   force =    -0.08094147   -0.02492065   -0.11406768
     atom   25 type  2   force =    -0.08340614   -0.03282479    0.04345315
     atom   26 type  2   force =    -0.00720666    0.03176596   -0.10071855
     atom   27 type  2   force =     0.08802707   -0.02896671    0.04834693
     atom   28 type  2   force =     0.05565071   -0.10110773   -0.03733221
     atom   29 type  1   force =     0.05510105    0.15703256    0.19821736
     atom   30 type  1   force =     0.03638793   -0.05271903    0.00041289
     atom   31 type  2   force =    -0.03522897    0.00378013    0.05974234
     atom   32 type  2   force =     0.15617747    0.01513091    0.12756967
     atom   33 type  2   force =    -0.08502381   -0.21783389    0.05290289
     atom   34 type  2   force =     0.08356209    0.09239952   -0.03023116
     atom   35 type  2   force =     0.07135388   -0.01304670   -0.00263581
     atom   36 type  1   force =    -0.22896838    0.07917535   -0.11374666
     atom   37 type  1   force =    -0.04903991   -0.11583347   -0.05723158
     atom   38 type  2   force =     0.09513181   -0.00961450    0.05516563
     atom   39 type  2   force =    -0.08294900    0.02649131    0.05810666
     atom   40 type  2   force =    -0.01480321    0.01750073   -0.02288665
     atom   41 type  2   force =    -0.08359162    0.00753823    0.00077024
     atom   42 type  2   force =     0.04858965   -0.01907709    0.16002207
     atom   43 type  1   force =     0.15883907   -0.04130665   -0.01878849
     atom   44 type  1   force =    -0.05922382    0.07471923    0.12489071
     atom   45 type  2   force =    -0.00205020   -0.03130668   -0.00714213
     atom   46 type  2   force =     0.05002160    0.00257160   -0.03213244
     atom   47 type  2   force =     0.06114635    0.00638549    0.02891426
     atom   48 type  2   force =    -0.10310303    0.13002772    0.18789817
     atom   49 type  2   force =    -0.04549112    0.03220313   -0.02099100
     atom   50 type  1   force =     0.22270899   -0.05362008    0.18627912
     atom   51 type  1   force =     0.02176410   -0.05902508    0.07415037
     atom   52 type  2   force =    -0.11166158   -0.05949644   -0.01613264
     atom   53 type  2   force =     0.04030989    0.03877791   -0.19942258
     atom   54 type  2   force =     0.07500835    0.08518121   -0.01219436
     atom   55 type  2   force =    -0.04524289    0.03433984   -0.00574477
     atom   56 type  2   force =     0.11739502   -0.04092309    0.06729249
     atom   57 type  1   force =     0.04478114   -0.13001824    0.01775288
     atom   58 type  1   force =    -0.04910711   -0.06581319   -0.05171512
     atom   59 type  2   force =     0.02245431    0.14419109    0.00929661
     atom   60 type  2   force =     0.10600978    0.07916584    0.03168709
     atom   61 type  2   force =     0.07401842    0.01104462    0.05907461
     atom   62 type  2   force =     0.01107837    0.08122926   -0.02058630
     atom   63 type  2   force =    -0.02522592   -0.11594749    0.02634951
     atom   64 type  1   force =     0.05202769    0.13084323   -0.09681588
     atom   65 type  1   force =    -0.08613205   -0.10232659   -0.05618372
     atom   66 type  2   force =    -0.04101380   -0.01093790    0.08975038
     atom   67 type  2   force =     0.03088094    0.00879324   -0.06723723
     atom   68 type  2   force =    -0.03410436    0.01502697    0.02980560
     atom   69 type  2   force =     0.05728197    0.02868224    0.01880786
     atom   70 type  2   force =     0.06900487    0.04164714    0.09783157
     atom   71 type  1   force =    -0.03875841   -0.03932383   -0.01850660
     atom   72 type  1   force =    -0.07498905    0.01311311   -0.01866926
     atom   73 type  2   force =     0.13567767   -0.08231585    0.12987566
     atom   74 type  2   force =    -0.06636083    0.02610704   -0.12986642
     atom   75 type  2   force =    -0.03462968    0.01874573    0.02128181
     atom   76 type  2   force =     0.04531136    0.08557506   -0.02746463
     atom   77 type  2   force =     0.04067388   -0.02425087    0.00424783
     atom   78 type  1   force =     0.16380847    0.03962744   -0.05576701
     atom   79 type  1   force =    -0.01966818   -0.09891045   -0.03344810
     atom   80 type  2   force =     0.11306965    0.12679886   -0.08441850
     atom   81 type  2   force =    -0.06610816   -0.07914698   -0.02110480
     atom   82 type  2   force =    -0.06022371    0.03763813    0.02331531
     atom   83 type  2   force =     0.06305024   -0.02199920   -0.02183010
     atom   84 type  2   force =    -0.08495377    0.06477783   -0.02350023
     atom   85 type  1   force =     0.09676177   -0.11162529    0.07274199
     atom   86 type  1   force =     0.05508529    0.13744501   -0.07275844
     atom   87 type  2   force =    -0.16624862   -0.01853914    0.01595219
     atom   88 type  2   force =    -0.00789237    0.05629487   -0.00022610
     atom   89 type  2   force =    -0.04122157    0.07941973    0.06116019
     atom   90 type  2   force =     0.12800487    0.01641757    0.02129232
     atom   91 type  2   force =    -0.07319985   -0.04357688   -0.08150565
     atom   92 type  1   force =     0.19338121   -0.31349611   -0.06168125
     atom   93 type  1   force =    -0.27369269    0.05980248    0.03589790
     atom   94 type  2   force =     0.03041499   -0.02348385   -0.06045408
     atom   95 type  2   force =    -0.02132025   -0.00865016   -0.00685002
     atom   96 type  2   force =     0.02433244    0.03632525   -0.00540756
     atom   97 type  2   force =     0.02638016    0.07018181   -0.03934824
     atom   98 type  2   force =    -0.13835705   -0.06930271    0.04033563
     atom   99 type  1   force =     0.01947498   -0.03407586    0.04556135
     atom  100 type  1   force =     0.10589894   -0.18907109   -0.04434596
     atom  101 type  2   force =     0.00696890   -0.04871813   -0.13589219
     atom  102 type  2   force =     0.01916872   -0.08194839    0.02666879
     atom  103 type  2   force =     0.10067701    0.18528920    0.14234977
     atom  104 type  2   force =     0.09295517    0.02006061   -0.00876222
     atom  105 type  2   force =    -0.12601864   -0.03186494   -0.02035097
     atom  106 type  1   force =    -0.10163904   -0.16415360   -0.19867611
     atom  107 type  1   force =    -0.18709810    0.01358476   -0.19608848
     atom  108 type  2   force =     0.01298868    0.09165944    0.05279975
     atom  109 type  2   force =     0.07982185   -0.08458767   -0.06280860
     atom  110 type  2   force =    -0.09649452   -0.12803307    0.07965418
     atom  111 type  2   force =    -0.07803279   -0.01250200   -0.08747941
     atom  112 type  2   force =    -0.01342224    0.02853138   -0.08447664
     atom  113 type  1   force =     0.03188952   -0.09368215    0.09114434
     atom  114 type  1   force =    -0.05332357    0.30115913   -0.07310043
     atom  115 type  2   force =     0.02679769   -0.05363058    0.03099922
     atom  116 type  2   force =     0.09132762   -0.04150115    0.00079412
     atom  117 type  2   force =     0.01901153    0.07323692    0.19901465
     atom  118 type  2   force =     0.06279721    0.08742980    0.04216567
     atom  119 type  2   force =    -0.06539584    0.02560040   -0.03449473
     atom  120 type  1   force =     0.10362481    0.06581279   -0.05889223
     atom  121 type  1   force =    -0.01307814   -0.13063119    0.05336690
     atom  122 type  2   force =     0.00041766   -0.06359321    0.23696259
     atom  123 type  2   force =    -0.03426043   -0.03857276    0.02331850
     atom  124 type  2   force =    -0.03429909   -0.10104949    0.11139478
     atom  125 type  2   force =    -0.06160785   -0.26579748   -0.07144584
     atom  126 type  2   force =    -0.12219335    0.02103013   -0.00704426

     Total force =     1.694986     Total SCF correction =     0.008707

     Entering Dynamics:    iteration =  3178
                           time      =  15.3696 pico-seconds


     Canonical sampling velocity rescaling

ATOMIC_POSITIONS (crystal)
Ta            0.5669502620        0.6269457237        0.9870421510
Ta           -0.0482394156       -0.0517847151        0.7537607636
O             0.9533826687        0.2862959590        0.3939695744
O             0.2699729768        0.6478776088        0.4024631150
O             0.1787020037       -0.1171574814        0.4665913540
O             0.5867875471        1.2033379981        1.2871386436
O             0.9871633170        0.3538283371       -0.0702678038
Ta            0.3616072801        0.4034381836        0.1024558769
Ta           -0.0227842382        0.4069092488        0.0724693749
O            -0.2817483627        0.3305953524        1.4203934896
O             0.0790488302        1.1201759873        0.1652044497
O             0.2390750105        0.4644665433        0.2416076076
O             0.6583965621        0.3645129518        0.7624988871
O             0.2833627760        0.6188638151        0.7652026377
Ta            0.0126406172       -0.1089993776        0.4932556913
Ta           -0.0322405822        0.0403776745        0.2131666829
O             0.4512028331        0.7320925102        0.5788926454
O             0.6588727053        0.1603603292        0.5549934544
O            -0.2175538469        0.8497041855        0.8174901120
O             0.7352449097        0.9711714682        0.5725280945
O             0.7756880176        0.4995571631        0.8790151159
Ta            0.3233398689        0.5084493371        0.4662576793
Ta           -0.1260961867        0.6267359583        0.8198533637
O             0.8818726766        0.2079443342        0.1306173937
O             0.3339439328        0.5694490839        0.0648111682
O             0.6471544463        0.0770370327        0.8391001436
O             0.4962239441        1.1059733323        0.6626889816
O             1.1658247140        0.2134548995        0.3149638905
Ta            0.1883620451        0.7439865656        0.7281280017
Ta            0.7204364918        0.7822420690        0.6818095836
O             0.4256339734       -0.1641293798        0.3329156680
O             0.6887564177        1.3295033440       -0.0480789565
O             0.5424092651        0.4851967394        0.0355826465
O             0.0531329337        0.0442264624       -0.1778871166
O             0.1110909534        0.2395870440        0.5808849694
Ta            0.5532834522        0.3510083291       -0.1138219017
Ta            0.8472274615        0.6978211749        0.4584149737
O             0.0347163415        0.3372557981        0.1961398983
O             0.6173074168        0.8919143422        0.6934294874
O            -0.0584004496        0.4879165122        0.7826736775
O             1.1749790913        0.4431245632        0.4485198959
O             0.3629674729        0.3729749841        0.9219482705
Ta            0.7144979918        0.9535377365       -0.0761429740
Ta            0.0107610779        0.7835239038        1.0294199512
O             1.2498189781        0.7454729933        0.2100256839
O             0.4750473015        0.5001670110        0.8371408637
O             0.4061152093        0.5401675296        0.5969994526
O             0.4998119912        0.7255115596        0.0742789220
O             0.8685849446        0.9335782420        0.4127127035
Ta            0.7508785198        0.0527749715        0.4216769115
Ta            0.6725611506        0.0616799473        0.6735105198
O             0.5904065287       -0.1289004981        0.9500244192
O             1.0080870853        0.8174976634        0.8792996649
O             0.6611113781        0.6625587428        0.7715799325
O             0.8555282570        0.2375536641        0.8725099164
O             0.0485602170       -0.1447939255        0.6587933666
Ta           -0.2214974243        0.2115574693        0.0164471685
Ta            0.3876025230        1.1497609124       -0.1110032983
O             0.8555314562        0.5494600769        0.4501258646
O             1.0724540735       -0.4846237225        0.0716776306
O             0.3430076477        0.9666182123        0.5157585371
O             1.0036493337        1.0768549181        0.6103292145
O             1.2705057269       -0.0031725031        0.2228570403
Ta            1.0901264375        0.3420247553        0.3517421967
Ta            0.9623282174        0.2285196524        0.5690494923
O             0.6398558672        0.4754722673        1.5387138324
O             0.3500565396        0.8603867660        0.0490979725
O             0.6941341712        0.7118152379        0.5204747996
O             0.8064925879        1.2922124063       -0.3671919900
O             0.5201321019        0.2589523095        0.4876252073
Ta            0.3414022175        0.8681479102        0.2066199880
Ta            0.3345013162        0.8070537964        0.4687724386
O             0.3150464466        0.1859594789        0.4630873747
O             0.6262363453        0.9987258337        1.3807126459
O             0.8711607489        0.6723133158        0.6615185659
O             0.2407675742        0.3011345899        0.1002126187
O             0.3462702089        0.1507610414        0.2402517341
Ta            0.6919697897        0.3783219355        0.2545083787
Ta            0.4260884486        0.8513319780       -0.0810796290
O             0.4151283412        0.3276445897        0.2151160188
O             0.0910462125        1.6365392421       -0.3097987882
O            -0.0581710969        0.6828560419        1.1564451948
O             0.1264347533        0.7051122712        1.0577573028
O             0.5315649131        0.1943816157       -0.0617723890
Ta            0.0894922720        0.4760130484        0.6892050104
Ta            0.2012910896        0.5875349580        0.1549252804
O             0.1833980513        0.4472955473        0.8318135704
O             0.3364819766        0.0915859442        0.0174747206
O             0.4881586805        0.5691110416        0.3867043993
O             0.7038293486        0.6252504148        1.0686969271
O             0.8024429429        1.0909009227        0.2720392580
Ta            0.3295631102        0.4856503562        0.7850988139
Ta            0.4482524465        0.2367051558        0.3579487034
O            -0.0846542137        0.6586597821        0.9658976592
O             1.0050233153        1.3080245537        0.7164798013
O             0.2298053966        0.4419197005        0.6356524247
O             0.2480025338        0.0729291629        0.7088192076
O             1.0588450549        0.9243435639        0.1055248860
Ta            1.2417673854        1.1470533201        0.1474956969
Ta            0.5372316322        0.6231467855        0.5252455122
O             0.0165896378        0.0371050512        0.3693677640
O             0.8588525417        0.8748037160        0.6087021943
O            -0.2959724900        0.0441908141        1.0497641062
O             0.6529934299        0.2350809331        0.1189976329
O            -0.1528481545        0.4135949677        0.1822202013
Ta            0.6428062165        1.0850002009        1.2052447733
Ta            0.3683837200        1.0934114377        0.6014267767
O             0.4166140926        0.9851640310       -0.1657247752
O             1.3756203738        0.3853873362        0.4159069991
O             0.8561954703        0.1689566627        0.4603425770
O             0.2842665791        0.8125145946        0.8414571122
O             1.2194553750        0.1959565834       -0.1185499101
Ta            0.8263289120        0.3748623351        0.7874701861
Ta            0.6566715982        0.3154021072        0.5638326976
O             0.4007130661        0.2919766211       -0.2568554889
O             0.2372136744        0.7860143994        0.6011728088
O             0.5319395342        0.0029808326        0.1217851637
O             0.4472122133        0.7010867198        0.8715542518
O            -0.1052886840        0.9968938515        0.9409358450
Ta            0.7980926779        0.7087291941        0.1427805406
Ta            0.1290512850        0.1772742338       -0.2490447137
O            -0.1914639214        0.8316221218        0.0157731428
O             0.7966653430        0.7428605934        0.2937823937
O             0.6558766379        1.5110482493        0.1997263737
O             1.0016697087        0.7552101728        0.4342004784
O             0.8392911229        0.0516966355       -0.2734842999


     kinetic energy (Ekin) =           3.64777361 Ry
     temperature           =        3071.66880724 K 
[...]
     atom   51 type  1   force =    -0.03449219    0.02406339    0.08011048
     atom   52 type  2   force =     0.00774658   -0.04743610   -0.06594342
     atom   53 type  2   force =    -0.07793563    0.12090524   -0.00303111
     atom   54 type  2   force =    -0.05222743   -0.04200884    0.01371074
     atom   55 type  2   force =     0.03485880    0.03405704    0.04620100
     atom   56 type  2   force =    -0.00086413    0.01461968    0.12972368
     atom   57 type  1   force =     0.07783396   -0.02253122   -0.00031493
     atom   58 type  1   force =     0.02088675   -0.08380919   -0.06265895
     atom   59 type  2   force =     0.16935400   -0.14905838   -0.05842161
     atom   60 type  2   force =    -0.02923248   -0.02852442    0.01414195
     atom   61 type  2   force =    -0.01177362   -0.02189292    0.01018053
     atom   62 type  2   force =     0.00757583   -0.02623123   -0.01256175
     atom   63 type  2   force =    -0.09186441   -0.01481566   -0.02073606
     atom   64 type  1   force =     0.14022482   -0.03750019   -0.03306252
     atom   65 type  1   force =     0.07128263   -0.04463343   -0.12306685
     atom   66 type  2   force =    -0.05733501   -0.01723598    0.04603339
     atom   67 type  2   force =     0.07748658   -0.11302812   -0.14674438
     atom   68 type  2   force =     0.16649934   -0.27387174   -0.22463592
     atom   69 type  2   force =     0.15088782   -0.08619506   -0.16707216
     atom   70 type  2   force =    -0.14657509   -0.00320527   -0.02815375
     atom   71 type  1   force =     0.00160559    0.04141254    0.06175025
     atom   72 type  1   force =     0.13947208    0.08824032    0.02954720
     atom   73 type  2   force =     0.04854542    0.03985441   -0.00949397
     atom   74 type  2   force =     0.15745046    0.00311126    0.04726019
     atom   75 type  2   force =    -0.12354592   -0.04293230   -0.01038098
     atom   76 type  2   force =     0.00051741   -0.09322512    0.10492714
     atom   77 type  2   force =     0.02218111   -0.03845798   -0.03035407
     atom   78 type  1   force =    -0.11559922   -0.18280386    0.39830318
     atom   79 type  1   force =    -0.04626056    0.08707783    0.10790662
     atom   80 type  2   force =     0.01273562   -0.07599893    0.09582987
     atom   81 type  2   force =     0.06173328   -0.15748187   -0.08191307
     atom   82 type  2   force =    -0.04115507    0.02637471   -0.05233212
     atom   83 type  2   force =    -0.03462403    0.00398763    0.01372469
     atom   84 type  2   force =    -0.10338356   -0.14610272   -0.07079711
     atom   85 type  1   force =    -0.03592280    0.22898746   -0.00856550
     atom   86 type  1   force =    -0.12188419    0.25633757   -0.01099538
     atom   87 type  2   force =    -0.03405263   -0.02721249    0.01816270
     atom   88 type  2   force =     0.00416137    0.05081079   -0.03911274
     atom   89 type  2   force =    -0.02638034    0.05545740   -0.12628272
     atom   90 type  2   force =     0.01336575    0.14979698    0.02736699
     atom   91 type  2   force =    -0.09383996    0.02615715    0.03850715
     atom   92 type  1   force =    -0.04943234   -0.01090683   -0.30678822
     atom   93 type  1   force =    -0.02685386    0.11345325   -0.20833039
     atom   94 type  2   force =     0.00395990    0.01051348    0.01619713
     atom   95 type  2   force =     0.01991166    0.04670413    0.10672322
     atom   96 type  2   force =    -0.07532773   -0.05708086    0.09996929
     atom   97 type  2   force =    -0.02361154    0.02370667   -0.01821542
     atom   98 type  2   force =    -0.04386775    0.02379241    0.07663625
     atom   99 type  1   force =     0.05121449    0.08016813    0.08463780
     atom  100 type  1   force =     0.05349107    0.07168328    0.04164915
     atom  101 type  2   force =     0.00428221   -0.01658382    0.01281233
     atom  102 type  2   force =    -0.08673634    0.04553524    0.11758262
     atom  103 type  2   force =     0.03771887   -0.10690854   -0.12340361
     atom  104 type  2   force =     0.09869995   -0.04023741   -0.04460098
     atom  105 type  2   force =    -0.14710791   -0.06939793    0.04399036
     atom  106 type  1   force =    -0.17450706    0.23348474    0.03283849
     atom  107 type  1   force =    -0.16548782   -0.13351657    0.01023020
     atom  108 type  2   force =     0.00737344   -0.00673904    0.02287788
     atom  109 type  2   force =     0.16954085   -0.14736357   -0.03238790
     atom  110 type  2   force =    -0.19909751    0.04792402    0.02133055
     atom  111 type  2   force =     0.13534704   -0.07022091    0.11933392
     atom  112 type  2   force =     0.05775989   -0.05807656   -0.01263761
     atom  113 type  1   force =    -0.08542664    0.00517389    0.28932146
     atom  114 type  1   force =     0.00958828    0.05118931    0.07300738
     atom  115 type  2   force =     0.03618713    0.01643466   -0.01733659
     atom  116 type  2   force =    -0.01523229   -0.05835602    0.12472848
     atom  117 type  2   force =     0.06796233   -0.06727773    0.04283073
     atom  118 type  2   force =     0.07413799    0.00513717    0.02387651
     atom  119 type  2   force =     0.01172865   -0.07485867    0.03322965
     atom  120 type  1   force =     0.15301382    0.06165423    0.09055780
     atom  121 type  1   force =     0.00338981    0.00425508   -0.07592485
     atom  122 type  2   force =    -0.07955440    0.00020886   -0.00996919
     atom  123 type  2   force =     0.01979487    0.01551149   -0.14734983
     atom  124 type  2   force =    -0.04121020    0.05484447   -0.01105522
     atom  125 type  2   force =    -0.00146681   -0.03449827   -0.01269846
     atom  126 type  2   force =    -0.01956104    0.00339834   -0.01154367

     Total force =     1.726357     Total SCF correction =     0.004638

     Entering Dynamics:    iteration =  3310
                           time      =  16.0082 pico-seconds


     Canonical sampling velocity rescaling

ATOMIC_POSITIONS (crystal)
Ta            0.6074672201        0.6704307852        1.0031666715
Ta           -0.0999890776       -0.1658983138        0.7755934716
O             1.0843629445        0.2731846173        0.3999380744
O             0.3209586178        0.6279598997        0.4801460582
O             0.1312973859       -0.2092892448        0.5062827417
O             0.6308953686        1.1441590414        1.1781051768
O             0.9172539843        0.5046739102       -0.1000863620
Ta            0.2667194370        0.5020978623        0.0591226109
Ta           -0.0548974936        0.5031693709        0.1956686255
O            -0.1734852281        0.3612266670        1.2396471152
O             0.1383222455        1.1661664001        0.2144205651
O             0.3485240162        0.6279622834        0.0820191803
O             0.7124323068        0.3730136370        0.5355349632
O             0.4185669522        0.7549417241        0.8267522665
Ta           -0.0236368131       -0.1967584141        0.5510763218
Ta            0.0785584463        0.0218829867        0.1958932633
O             0.5488808141        0.7783134261        0.5445885570
O             0.7897520997        0.1707242131        0.3716192538
O            -0.2593538891        0.8094579252        0.7945140979
O             0.7753848949        1.0206637652        0.5241934563
O             0.7384929397        0.3563580603        0.7724966552
Ta            0.2941208313        0.5072993797        0.5701716130
Ta           -0.1889765904        0.5145704327        0.8009495806
O             0.9826861833        0.4215333295        0.0805395662
O             0.1496417129        0.6004224675        0.0960900090
O             0.6268619884        0.0272156366        0.7881733210
O             0.5249858755        1.1123419267        0.5856145855
O             1.2556188575        0.4052756541        0.4373093714
Ta            0.1724539024        0.7594565488        0.7850087724
Ta            0.6533143875        0.7370406006        0.6447691481
O             0.3177962431       -0.1900139310        0.3405780201
O             0.7689323516        1.3630360583        0.0043645210
O             0.4665937996        0.4872693739       -0.0912981574
O            -0.1462308298       -0.0313167397       -0.1682136702
O             0.2165376252        0.1453559507        0.5449578043
Ta            0.6101130163        0.3825759426       -0.0877911481
Ta            0.7971931043        0.5898202578        0.4251362168
O             0.1018158078        0.4559731804        0.2496820218
O             0.6562302465        0.8930116930        0.6276075858
O            -0.0601043313        0.4313825286        0.6934235392
O             1.1392878378        0.5045781525        0.5564635420
O             0.2286909401        0.4706200177        0.9203767995
Ta            0.6832009670        0.9332682635       -0.0918493371
Ta           -0.1000305635        0.8713308862        1.0103798398
O             1.1581675993        0.8085708397        0.1545784683
O             0.4841540394        0.3987562302        0.7314261181
O             0.4222559726        0.5979117638        0.6429048912
O             0.4730634006        0.7094306805        0.0210858550
O             0.9052980304        0.8798819581        0.4205859495
Ta            0.8209572977       -0.0080412437        0.3622747291
Ta            0.6705580203        0.0479237283        0.6257539778
O             0.5745451310       -0.1597448544        0.9533693449
O             0.9849693207        0.7775742793        0.9099003241
O             0.6238906305        0.6403063409        0.7686090643
O             0.8848646964        0.2256444591        0.8464544512
O             0.0500948731       -0.1825587098        0.6928361850
Ta           -0.0831217900        0.2891649999       -0.0301303138
Ta            0.4005537971        1.1558936281       -0.0759768158
O             0.8791950265        0.4482479386        0.4104871576
O             1.2896064080       -0.4315857825        0.2814208095
O             0.3332932982        0.9680903626        0.5332484642
O             0.9915376984        1.0262670918        0.5961236627
O             1.2598704057        0.0397495162        0.1134491597
Ta            1.0860167480        0.4202607858        0.4120417440
Ta            1.0508748964        0.1613523930        0.5783588355
O             0.6704674318        0.5273517820        1.3861386316
O             0.3475967681        0.8446724444        0.1086352345
O             0.7384932004        0.6534981545        0.5593816679
O             0.9226176468        1.2660227467       -0.4644305266
O             0.6183753412        0.2985974034        0.3756565748
Ta            0.3046034172        0.9314316931        0.2283557904
Ta            0.2727901642        0.8131725520        0.4968980022
O             0.3701925002        0.2639458594        0.5246593732
O             0.6583598113        0.9395271810        1.3388404569
O             0.8903056546        0.6554486323        0.7684971861
O             0.3009586564        0.3524961616        0.0829544860
O             0.3400150201        0.2495135459        0.2908852891
Ta            0.7166975110        0.2908662226        0.1135670564
Ta            0.3625297491        0.8296214910       -0.0713521956
O             0.4586751640        0.4268663417        0.2688826926
O             0.0632410250        1.6171560230       -0.1835783117
O            -0.1243622754        0.8397744671        1.1699584004
O            -0.0453494016        0.6545270789        1.1604367860
O             0.5448489328        0.2481057574       -0.0881136005
Ta            0.1005420226        0.4565429368        0.7829968878
Ta            0.2630985673        0.6761501773        0.1980188308
O             0.0699782752        0.3344547090        0.8798187931
O             0.4163694390        0.1466231303        0.0700300395
O             0.5104989533        0.6565207288        0.3642224176
O             0.6893611939        0.5231740381        0.9225630620
O             1.0409767406        1.1789152371        0.0147053147
Ta            0.4173924403        0.5326780591        0.7855718500
Ta            0.4429459685        0.3279748273        0.3882084746
O            -0.2308453172        0.7445286330        1.0123478122
O             1.0906447458        1.2163607385        0.7081673651
O             0.2632330722        0.5006138247        0.7199352330
O             0.1087151457        0.0263501086        0.8547333707
O             1.0255330021        0.9539955089        0.0374717934
Ta            1.2797105501        1.2037517860        0.1476600449
Ta            0.5086275649        0.6008930170        0.4834315416
O             0.1705041576       -0.0234586831        0.3097754062
O             0.8398885774        0.8246410618        0.6207866995
O            -0.3894581386       -0.0680506809        1.1226416192
O             0.8225080265        0.1904104431        0.0672547694
O            -0.2082946886        0.5613335193        0.2070329681
Ta            0.5833563414        0.9986050325        1.2318058082
Ta            0.3736278496        1.1276099582        0.5966524859
O             0.3985176655        1.0023952971       -0.1016266140
O             1.4196769424        0.4629504771        0.4792459449
O             0.9723146834        0.0295174881        0.3106801002
O             0.2297023589        0.6807865569        0.8910147529
O             1.2555666469        0.2093566369       -0.0573209345
Ta            0.8270890966        0.3177940732        0.6288043364
Ta            0.7658797480        0.3164275819        0.3831317785
O             0.3437863826        0.1490599633       -0.2541177225
O             0.2674788384        0.7917809048        0.6538171228
O             0.4290594418        0.0364355004        0.2498759092
O             0.2075342644        0.8758363570        0.8703736862
O            -0.2202096608        0.9949672017        1.0045479528
Ta            0.7802625590        0.7077794430        0.1801643314
Ta            0.1112435810        0.1648730545       -0.1307412001
O            -0.3574455888        0.6499323335        0.1484261120
O             0.7656505444        0.7233148916        0.3425749334
O             0.5812029265        1.3532907806        0.0732872604
O             0.9456536799        0.6623005018        0.4942015554
O             0.7553137290        0.1756514415       -0.3453270366


     kinetic energy (Ekin) =           3.92627538 Ry
     temperature           =        3306.18588211 K 
     Ekin + Etot (const)   =       -8861.35607788 Ry

     Linear momentum :   -0.0000000000    0.0000000000    0.0000000000

     Writing config-only to output data dir /data/umari/tantala_small_cp/vtao.save/
     NEW-OLD atomic charge density approx. for the potential

     Check: negative core charge=   -0.000001

     negative rho (up, down):  3.555E+00 0.000E+00

     total cpu time spent up to now is    24635.3 secs

     Self-consistent Calculation

     iteration #  1     ecut=    50.00 Ry     beta= 0.60
     Davidson diagonalization with overlap
     c_bands:  2 eigenvalues not converged
     ethr =  1.00E-06,  avg # of iterations = 40.0

     negative rho (up, down):  3.557E+00 0.000E+00

     total cpu time spent up to now is    24678.3 secs

     total energy              =   -8864.48752520 Ry
     estimated scf accuracy    <       1.25566597 Ry

     iteration #  2     ecut=    50.00 Ry     beta= 0.60
     Davidson diagonalization with overlap
     ethr =  1.25E-04,  avg # of iterations =  9.0

     negative rho (up, down):  3.558E+00 0.000E+00

     total cpu time spent up to now is    24691.0 secs

     total energy              =   -8863.94318551 Ry
     estimated scf accuracy    <       7.73436663 Ry

     iteration #  3     ecut=    50.00 Ry     beta= 0.60
     Davidson diagonalization with overlap
     ethr =  1.25E-04,  avg # of iterations =  8.0

     negative rho (up, down):  3.558E+00 0.000E+00

     total cpu time spent up to now is    24701.7 secs

     total energy              =   -8864.97560205 Ry
     estimated scf accuracy    <       0.92618212 Ry

     iteration #  4     ecut=    50.00 Ry     beta= 0.60
     Davidson diagonalization with overlap
     ethr =  9.19E-05,  avg # of iterations =  7.0

     negative rho (up, down):  3.557E+00 0.000E+00

     total cpu time spent up to now is    24710.3 secs

     total energy              =   -8865.06626094 Ry
     estimated scf accuracy    <       0.09544312 Ry

     iteration #  5     ecut=    50.00 Ry     beta= 0.60
     Davidson diagonalization with overlap
     ethr =  9.47E-06,  avg # of iterations = 14.0

     negative rho (up, down):  3.557E+00 0.000E+00

     total cpu time spent up to now is    24723.7 secs

     total energy              =   -8865.06555343 Ry
     estimated scf accuracy    <       0.20207922 Ry

     iteration #  6     ecut=    50.00 Ry     beta= 0.60
     Davidson diagonalization with overlap
     ethr =  9.47E-06,  avg # of iterations =  4.0

     negative rho (up, down):  3.557E+00 0.000E+00

     total cpu time spent up to now is    24730.8 secs

     total energy              =   -8865.08489644 Ry
     estimated scf accuracy    <       0.03464098 Ry

     iteration #  7     ecut=    50.00 Ry     beta= 0.60
     Davidson diagonalization with overlap
     c_bands:  2 eigenvalues not converged
     ethr =  3.44E-06,  avg # of iterations = 20.0

     negative rho (up, down):  3.557E+00 0.000E+00

     total cpu time spent up to now is    24746.9 secs

     total energy              =   -8865.08754285 Ry
     estimated scf accuracy    <       0.02156114 Ry

     iteration #  8     ecut=    50.00 Ry     beta= 0.60
     Davidson diagonalization with overlap
     ethr =  2.14E-06,  avg # of iterations = 15.0

     negative rho (up, down):  3.557E+00 0.000E+00

     total cpu time spent up to now is    24757.2 secs

     total energy              =   -8865.08870192 Ry
     estimated scf accuracy    <       0.00914107 Ry

     iteration #  9     ecut=    50.00 Ry     beta= 0.60
     Davidson diagonalization with overlap
     ethr =  9.07E-07,  avg # of iterations =  4.0

     negative rho (up, down):  3.557E+00 0.000E+00

     total cpu time spent up to now is    24763.9 secs

     total energy              =   -8865.08954155 Ry
     estimated scf accuracy    <       0.00298268 Ry

     iteration # 10     ecut=    50.00 Ry     beta= 0.60
     Davidson diagonalization with overlap
     ethr =  2.96E-07,  avg # of iterations =  2.0

     negative rho (up, down):  3.557E+00 0.000E+00

     total cpu time spent up to now is    24770.2 secs

     total energy              =   -8865.08982929 Ry
     estimated scf accuracy    <       0.00059931 Ry

     iteration # 11     ecut=    50.00 Ry     beta= 0.60
     Davidson diagonalization with overlap
     ethr =  5.95E-08,  avg # of iterations =  3.0

     negative rho (up, down):  3.557E+00 0.000E+00

     total cpu time spent up to now is    24776.8 secs

     total energy              =   -8865.08985130 Ry
     estimated scf accuracy    <       0.00018964 Ry

     iteration # 12     ecut=    50.00 Ry     beta= 0.60
     Davidson diagonalization with overlap
     ethr =  1.88E-08,  avg # of iterations =  5.0

     negative rho (up, down):  3.557E+00 0.000E+00

     total cpu time spent up to now is    24785.6 secs

     total energy              =   -8865.08986681 Ry
     estimated scf accuracy    <       0.00029344 Ry

     iteration # 13     ecut=    50.00 Ry     beta= 0.60
     Davidson diagonalization with overlap
     ethr =  1.88E-08,  avg # of iterations =  5.0

     negative rho (up, down):  3.557E+00 0.000E+00

     total cpu time spent up to now is    24793.2 secs

     total energy              =   -8865.08989723 Ry
     estimated scf accuracy    <       0.00008880 Ry

     iteration # 14     ecut=    50.00 Ry     beta= 0.60
     Davidson diagonalization with overlap
